    -----------------------------------------------------------------------
          PSI4: An Open-Source Ab Initio Electronic Structure Package
                              PSI 4.0.0-beta5+ Driver

               Git: Rev {master} eab4c2bf53d0cfe2fa7ff775dfb81b740d89e238

    J. M. Turney, A. C. Simmonett, R. M. Parrish, E. G. Hohenstein,
    F. A. Evangelista, J. T. Fermann, B. J. Mintz, L. A. Burns, J. J. Wilke,
    M. L. Abrams, N. J. Russ, M. L. Leininger, C. L. Janssen, E. T. Seidl,
    W. D. Allen, H. F. Schaefer, R. A. King, E. F. Valeev, C. D. Sherrill,
    and T. D. Crawford, WIREs Comput. Mol. Sci. 2, 556-565 (2012)
    (doi: 10.1002/wcms.93)

                         Additional Contributions by
    A. E. DePrince, M. Saitow, U. Bozkaya, A. Yu. Sokolov
    -----------------------------------------------------------------------

    Process ID:   5514
    PSI4DATADIR: /home/wv111/local/share/psi/

    Using LocalCommunicator (Number of processes = 1)

    Memory level set to 256.000 MB

  ==> Input File <==

--------------------------------------------------------------------------
#! Example potential energy surface scan and CP-correction for Ne2

memory 2000 mb

molecule dimer {
  Ne
--
  Ne 1 R
}

rvals = [0.5, 0.75, 1.0, 1.25, 1.5, 1.75, 2.0, 2.25, 2.5, 2.75, 3.0, 3.25, 3.5, 3.75, 4.0, 4.25, 4.5, 4.75, 5.0]

set basis cc-pVDZ
set reference uhf

# Initialize a blank dictionary of counterpoise corrected energies
# (Need this for the syntax below to work)
ecp = {}

for R in rvals:
  dimer.R = R
  energy('ccsd(t)')
--------------------------------------------------------------------------

  Memory set to   2.000 GiB by Python script.
Setting geometry variable R to 0.500000

*** tstart() called on cx1-12-3-4.cx1.hpc.ic.ac.uk
*** at Mon Dec  2 13:13:57 2013

	There are an even number of electrons - assuming singlet.
	Specify the multiplicity with the MULTP option in the
	input if this is incorrect


         ---------------------------------------------------------
                                   SCF
            by Justin Turney, Rob Parrish, and Andy Simmonett
                              UHF Reference
                        1 Threads,   2000 MiB Core
         ---------------------------------------------------------

  ==> Geometry <==

    Molecular point group: d2h
    Full point group: D_inf_h

    Geometry (in Angstrom), charge = 0, multiplicity = 1:

       Center              X                  Y                   Z       
    ------------   -----------------  -----------------  -----------------
          NE          0.000000000000     0.000000000000    -0.250000000000
          NE          0.000000000000     0.000000000000     0.250000000000

  Running in d2h symmetry.


	Rotational constants (cm^-1):
	A = **********    B =    6.74560   C =    6.74560

	Rotational constants (MHz):
	A = **********    B = 202228.04242   C = 202228.04242
  Nuclear repulsion =  105.835441717999998

  Charge       = 0
  Multiplicity = 1
  Electrons    = 20
  Nalpha       = 10
  Nbeta        = 10

  ==> Algorithm <==

  SCF Algorithm Type is PK.
  DIIS enabled.
  MOM disabled.
  Fractional occupation disabled.
  Guess Type is CORE.
  Energy threshold   = 1.00e-08
  Density threshold  = 1.00e-08
  Integral threshold = 0.00e+00

  ==> Primary Basis <==

  Basis Set: CC-PVDZ
    Number of shells: 12
    Number of basis function: 28
    Number of Cartesian functions: 30
    Spherical Harmonics?: true
    Max angular momentum: 2

  ==> Pre-Iterations <==

   -------------------------------------------------------
    Irrep   Nso     Nmo     Nalpha   Nbeta   Ndocc  Nsocc
   -------------------------------------------------------
     Ag         7       7       0       0       0       0
     B1g        1       1       0       0       0       0
     B2g        3       3       0       0       0       0
     B3g        3       3       0       0       0       0
     Au         1       1       0       0       0       0
     B1u        7       7       0       0       0       0
     B2u        3       3       0       0       0       0
     B3u        3       3       0       0       0       0
   -------------------------------------------------------
    Total      28      28      10      10      10       0
   -------------------------------------------------------

  Starting with a DF guess...

 OEINTS: Wrapper to libmints.
   by Justin Turney

   Calculation information:
      Number of atoms:                   2
      Number of AO shells:              12
      Number of SO shells:               6
      Number of primitives:             44
      Number of atomic orbitals:        30
      Number of basis functions:        28

      Number of irreps:                  8
      Number of functions per irrep: [   7    1    3    3    1    7    3    3 ]

      Overlap, kinetic, potential, dipole, and quadrupole integrals
        stored in file 35.

  ==> Integral Setup <==

  ==> DFJK: Density-Fitted J/K Matrices <==

    J tasked:                  Yes
    K tasked:                  Yes
    wK tasked:                  No
    OpenMP threads:              1
    Integrals threads:           1
    Memory (MB):              1430
    Algorithm:                Core
    Integral Cache:           NONE
    Schwarz Cutoff:          1E-12
    Fitting Condition:       1E-12

   => Auxiliary Basis Set <=

  Basis Set: CC-PVDZ-JKFIT
    Number of shells: 48
    Number of basis function: 140
    Number of Cartesian functions: 162
    Spherical Harmonics?: true
    Max angular momentum: 3

  Minimum eigenvalue in the overlap matrix is 2.0353026259E-03.
  Using Symmetric Orthogonalization.
  SCF Guess: Core (One-Electron) Hamiltonian.

  ==> Iterations <==

                           Total Energy        Delta E     RMS |[F,P]|

   @DF-UHF iter   1:  -219.50164076555509   -2.19502e+02   9.10618e-01 
   @DF-UHF iter   2:  -235.84009915221461   -1.63385e+01   5.69752e-01 DIIS
   @DF-UHF iter   3:  -245.13056368224576   -9.29046e+00   4.43262e-02 DIIS
   @DF-UHF iter   4:  -245.18547464496689   -5.49110e-02   4.69692e-03 DIIS
   @DF-UHF iter   5:  -245.18612874265037   -6.54098e-04   3.24222e-04 DIIS
   @DF-UHF iter   6:  -245.18613209714707   -3.35450e-06   1.35802e-05 DIIS
   @DF-UHF iter   7:  -245.18613210474891   -7.60184e-09   1.98955e-06 DIIS
   @DF-UHF iter   8:  -245.18613210486424   -1.15335e-10   7.57536e-08 DIIS
   @DF-UHF iter   9:  -245.18613210486447   -2.27374e-13   4.63668e-09 DIIS

  DF guess converged.

  ==> Integral Setup <==

 MINTS: Wrapper to libmints.
   by Justin Turney

   Calculation information:
      Number of atoms:                   2
      Number of AO shells:              12
      Number of SO shells:               6
      Number of primitives:             44
      Number of atomic orbitals:        30
      Number of basis functions:        28

      Number of irreps:                  8
      Integral cutoff                 0.00e+00
      Number of functions per irrep: [   7    1    3    3    1    7    3    3 ]

      Overlap, kinetic, potential, dipole, and quadrupole integrals
        stored in file 35.

      Computing two-electron integrals...done
      Computed 10699 non-zero two-electron integrals.
        Stored in file 33.

	Batch   1 pq = [       0,      82] index = [             0,3403]
  ==> DiskJK: Disk-Based J/K Matrices <==

    J tasked:                  Yes
    K tasked:                  Yes
    wK tasked:                  No
    Memory (MB):              1430
    Schwarz Cutoff:          1E-12

   @UHF iter  10:  -245.18638716061096   -2.55056e-04   2.90517e-04 DIIS
   @UHF iter  11:  -245.18639003240557   -2.87179e-06   4.33029e-05 DIIS
   @UHF iter  12:  -245.18639012794412   -9.55386e-08   6.31666e-06 DIIS
   @UHF iter  13:  -245.18639013025208   -2.30796e-09   1.36340e-06 DIIS
   @UHF iter  14:  -245.18639013030119   -4.91127e-11   2.60529e-07 DIIS
   @UHF iter  15:  -245.18639013030335   -2.16005e-12   1.02614e-08 DIIS
   @UHF iter  16:  -245.18639013030352   -1.70530e-13   4.72901e-10 DIIS

  ==> Post-Iterations <==

   @Spin Contamination Metric:   2.309263891E-14
   @S^2 Expected:                0.000000000E+00
   @S^2 Observed:                2.309263891E-14
   @S   Expected:                0.000000000E+00
   @S   Observed:                0.000000000E+00

	Orbital Energies (a.u.)
	-----------------------

	Alpha Occupied:                                                       

	   1Ag   -33.889607     1B1u  -33.740764     2Ag    -4.575997  
	   1B2u   -2.715673     1B3u   -2.715673     3Ag    -1.914177  
	   2B1u   -1.810731     1B3g   -0.475830     1B2g   -0.475830  
	   3B1u    0.627882  

	Alpha Virtual:                                                        

	   2B2u    0.911891     2B3u    0.911891     4Ag     1.079135  
	   5Ag     1.677091     2B2g    1.679671     2B3g    1.679671  
	   4B1u    3.263105     6Ag     3.505825     1B1g    3.505825  
	   5B1u    4.295877     3B2u    4.932865     3B3u    4.932865  
	   6B1u    5.781309     1Au     5.781309     7Ag     6.109667  
	   3B2g    8.135625     3B3g    8.135625     7B1u   13.382125  

	Beta Occupied:                                                        

	   1Ag   -33.889607     1B1u  -33.740764     2Ag    -4.575997  
	   1B2u   -2.715673     1B3u   -2.715673     3Ag    -1.914177  
	   2B1u   -1.810731     1B3g   -0.475830     1B2g   -0.475830  
	   3B1u    0.627882  

	Beta Virtual:                                                         

	   2B2u    0.911891     2B3u    0.911891     4Ag     1.079135  
	   5Ag     1.677091     2B2g    1.679671     2B3g    1.679671  
	   4B1u    3.263105     6Ag     3.505825     1B1g    3.505825  
	   5B1u    4.295877     3B2u    4.932865     3B3u    4.932865  
	   6B1u    5.781309     1Au     5.781309     7Ag     6.109667  
	   3B2g    8.135625     3B3g    8.135625     7B1u   13.382125  

	Final Occupation by Irrep:
	         Ag   B1g   B2g   B3g    Au   B1u   B2u   B3u 
	DOCC [     3,    0,    1,    1,    0,    3,    1,    1 ]
	SOCC [     0,    0,    0,    0,    0,    0,    0,    0 ]

  Energy converged.

  @UHF Final Energy:  -245.18639013030352

   => Energetics <=

    Nuclear Repulsion Energy =            105.8354417179999984
    One-Electron Energy =                -538.6708673604033493
    Two-Electron Energy =                 187.6490355120998856
    DFT Exchange-Correlation Energy =       0.0000000000000000
    Empirical Dispersion Energy =           0.0000000000000000
    Total Energy =                       -245.1863901303034936



Properties will be evaluated at   0.000000,   0.000000,   0.000000 Bohr
  ==> Properties <==


Properties computed using the SCF density density matrix
  Nuclear Dipole Moment: (a.u.)
     X:     0.0000      Y:     0.0000      Z:     0.0000

  Electronic Dipole Moment: (a.u.)
     X:     0.0000      Y:     0.0000      Z:     0.0000

  Dipole Moment: (a.u.)
     X:     0.0000      Y:     0.0000      Z:     0.0000     Total:     0.0000

  Dipole Moment: (Debye)
     X:     0.0000      Y:     0.0000      Z:     0.0000     Total:     0.0000


  Saving occupied orbitals to File 180.

*** tstop() called on cx1-12-3-4.cx1.hpc.ic.ac.uk at Mon Dec  2 13:14:09 2013
Module time:
	user time   =       0.30 seconds =       0.01 minutes
	system time =       0.02 seconds =       0.00 minutes
	total time  =         12 seconds =       0.20 minutes
Total time:
	user time   =       0.30 seconds =       0.01 minutes
	system time =       0.02 seconds =       0.00 minutes
	total time  =         12 seconds =       0.20 minutes

*** tstart() called on cx1-12-3-4.cx1.hpc.ic.ac.uk
*** at Mon Dec  2 13:14:09 2013


	**************************************************
	* TRANSQT2: Program to transform integrals from  *
	*           the SO basis to the MO basis.        *
	*                                                *
	*            Daniel, David, & Justin             *
	**************************************************


	Input parameters:
	-----------------
	Wave function   =	CCSD_T
	Backtransform   =	No
	Print Level     =	1
	Print TEIs      =	No
	Reference wfn   =	UHF
	Derivative      =	None
	Delete TEI File =	Yes
	Memory (Mbytes) =	2000.0
	Cache Level     =	2
	Cache Type      =	LRU
	Chkpt Parameters:
	--------------------
	Number of irreps     = 8
	Number of SOs        = 28
	Number of MOs        = 28
	Number of active MOs = 28

	Label	# SOs	# FZDC	# DOCC	# SOCC	# VIRT	# FZVR
	-----	-----	------	------	------	------	------
	 Ag	   7	    0	    3	    0	    4	    0
	 B1g	   1	    0	    0	    0	    1	    0
	 B2g	   3	    0	    1	    0	    2	    0
	 B3g	   3	    0	    1	    0	    2	    0
	 Au	   1	    0	    0	    0	    1	    0
	 B1u	   7	    0	    3	    0	    4	    0
	 B2u	   3	    0	    1	    0	    2	    0
	 B3u	   3	    0	    1	    0	    2	    0

	Nuclear Rep. energy (chkpt) =    105.83544171800000
	SCF energy          (chkpt) =   -245.18639013030352

	Presorting SO-basis two-electron integrals.
	Sorting File: SO Ints (pq,rs) nbuckets = 1
	Frozen-core energy =    0.000000000000000
	Starting AA/AB first half-transformation.
	Sorting AA/AB half-transformed integrals.
	Starting AA second half-transformation.
	Starting AB second half-transformation.
	Starting BB first half-transformation.
	Sorting BB half-transformed integrals.
	Starting BB second half-transformation.
	Two-electron integral transformation complete.

*** tstop() called on cx1-12-3-4.cx1.hpc.ic.ac.uk at Mon Dec  2 13:14:26 2013
Module time:
	user time   =       0.03 seconds =       0.00 minutes
	system time =       0.02 seconds =       0.00 minutes
	total time  =         17 seconds =       0.28 minutes
Total time:
	user time   =       0.34 seconds =       0.01 minutes
	system time =       0.04 seconds =       0.00 minutes
	total time  =         29 seconds =       0.48 minutes

*** tstart() called on cx1-12-3-4.cx1.hpc.ic.ac.uk
*** at Mon Dec  2 13:14:26 2013


			**************************
			*                        *
			*         CCSORT         *
			*                        *
			**************************


	Input parameters:
	-----------------
	Wave function   =	CCSD_T
	Reference wfn   =	UHF
	Derivative      =	None
	Memory (Mbytes) =	2000.0
	AO Basis        =	NONE
	Make (ab|cd)    =	True
	Make unpacked (ab|cd) =	True
	Cache Level     =	2
	Cache Type      =	LRU
	Local CC        =     No


	Chkpt Parameters:
	--------------------
	Number of irreps     = 8
	Number of MOs        = 28
	Number of active MOs = 28

	Label	# MOs	# FZDC	# DOCC	# SOCC	# VIRT	# FZVR
	-----	-----	------	------	------	------	------
	 Ag	   7	    0	    3	    0	    4	    0
	 B1g	   1	    0	    0	    0	    1	    0
	 B2g	   3	    0	    1	    0	    2	    0
	 B3g	   3	    0	    1	    0	    2	    0
	 Au	   1	    0	    0	    0	    1	    0
	 B1u	   7	    0	    3	    0	    4	    0
	 B2u	   3	    0	    1	    0	    2	    0
	 B3u	   3	    0	    1	    0	    2	    0

	Nuclear Rep. energy (chkpt) =    105.83544171800000
	SCF energy          (chkpt) =   -245.18639013030352

	Size of irrep 0 of <AB|CD> integrals:      0.000 (MW) /      0.002 (MB)
	Size of irrep 1 of <AB|CD> integrals:      0.000 (MW) /      0.002 (MB)
	Size of irrep 2 of <AB|CD> integrals:      0.000 (MW) /      0.003 (MB)
	Size of irrep 3 of <AB|CD> integrals:      0.000 (MW) /      0.003 (MB)
	Size of irrep 4 of <AB|CD> integrals:      0.000 (MW) /      0.002 (MB)
	Size of irrep 5 of <AB|CD> integrals:      0.001 (MW) /      0.005 (MB)
	Size of irrep 6 of <AB|CD> integrals:      0.000 (MW) /      0.003 (MB)
	Size of irrep 7 of <AB|CD> integrals:      0.000 (MW) /      0.003 (MB)
	Total:                                     0.003 (MW) /      0.024 (MB)

	Size of irrep 0 of <ab|cd> integrals:      0.000 (MW) /      0.002 (MB)
	Size of irrep 1 of <ab|cd> integrals:      0.000 (MW) /      0.002 (MB)
	Size of irrep 2 of <ab|cd> integrals:      0.000 (MW) /      0.003 (MB)
	Size of irrep 3 of <ab|cd> integrals:      0.000 (MW) /      0.003 (MB)
	Size of irrep 4 of <ab|cd> integrals:      0.000 (MW) /      0.002 (MB)
	Size of irrep 5 of <ab|cd> integrals:      0.001 (MW) /      0.005 (MB)
	Size of irrep 6 of <ab|cd> integrals:      0.000 (MW) /      0.003 (MB)
	Size of irrep 7 of <ab|cd> integrals:      0.000 (MW) /      0.003 (MB)
	Total:                                     0.003 (MW) /      0.024 (MB)

	Size of irrep 0 of <Ab|Cd> integrals:      0.003 (MW) /      0.020 (MB)
	Size of irrep 1 of <Ab|Cd> integrals:      0.001 (MW) /      0.008 (MB)
	Size of irrep 2 of <Ab|Cd> integrals:      0.002 (MW) /      0.013 (MB)
	Size of irrep 3 of <Ab|Cd> integrals:      0.002 (MW) /      0.013 (MB)
	Size of irrep 4 of <Ab|Cd> integrals:      0.001 (MW) /      0.008 (MB)
	Size of irrep 5 of <Ab|Cd> integrals:      0.003 (MW) /      0.020 (MB)
	Size of irrep 6 of <Ab|Cd> integrals:      0.002 (MW) /      0.013 (MB)
	Size of irrep 7 of <Ab|Cd> integrals:      0.002 (MW) /      0.013 (MB)
	Total:                                     0.013 (MW) /      0.108 (MB)

	Size of irrep 0 of <IA|BC> integrals:      0.002 (MW) /      0.013 (MB)
	Size of irrep 1 of <IA|BC> integrals:      0.000 (MW) /      0.004 (MB)
	Size of irrep 2 of <IA|BC> integrals:      0.001 (MW) /      0.007 (MB)
	Size of irrep 3 of <IA|BC> integrals:      0.001 (MW) /      0.007 (MB)
	Size of irrep 4 of <IA|BC> integrals:      0.000 (MW) /      0.004 (MB)
	Size of irrep 5 of <IA|BC> integrals:      0.002 (MW) /      0.013 (MB)
	Size of irrep 6 of <IA|BC> integrals:      0.001 (MW) /      0.007 (MB)
	Size of irrep 7 of <IA|BC> integrals:      0.001 (MW) /      0.007 (MB)
	Total:                                     0.008 (MW) /      0.061 (MB)

	Size of irrep 0 of <ia|bc> integrals:      0.002 (MW) /      0.013 (MB)
	Size of irrep 1 of <ia|bc> integrals:      0.000 (MW) /      0.004 (MB)
	Size of irrep 2 of <ia|bc> integrals:      0.001 (MW) /      0.007 (MB)
	Size of irrep 3 of <ia|bc> integrals:      0.001 (MW) /      0.007 (MB)
	Size of irrep 4 of <ia|bc> integrals:      0.000 (MW) /      0.004 (MB)
	Size of irrep 5 of <ia|bc> integrals:      0.002 (MW) /      0.013 (MB)
	Size of irrep 6 of <ia|bc> integrals:      0.001 (MW) /      0.007 (MB)
	Size of irrep 7 of <ia|bc> integrals:      0.001 (MW) /      0.007 (MB)
	Total:                                     0.008 (MW) /      0.061 (MB)

	Size of irrep 0 of <Ia|Bc> integrals:      0.002 (MW) /      0.013 (MB)
	Size of irrep 1 of <Ia|Bc> integrals:      0.000 (MW) /      0.004 (MB)
	Size of irrep 2 of <Ia|Bc> integrals:      0.001 (MW) /      0.007 (MB)
	Size of irrep 3 of <Ia|Bc> integrals:      0.001 (MW) /      0.007 (MB)
	Size of irrep 4 of <Ia|Bc> integrals:      0.000 (MW) /      0.004 (MB)
	Size of irrep 5 of <Ia|Bc> integrals:      0.002 (MW) /      0.013 (MB)
	Size of irrep 6 of <Ia|Bc> integrals:      0.001 (MW) /      0.007 (MB)
	Size of irrep 7 of <Ia|Bc> integrals:      0.001 (MW) /      0.007 (MB)
	Total:                                     0.008 (MW) /      0.061 (MB)

	Size of irrep 0 of <iA|bC> integrals:      0.002 (MW) /      0.013 (MB)
	Size of irrep 1 of <iA|bC> integrals:      0.000 (MW) /      0.004 (MB)
	Size of irrep 2 of <iA|bC> integrals:      0.001 (MW) /      0.007 (MB)
	Size of irrep 3 of <iA|bC> integrals:      0.001 (MW) /      0.007 (MB)
	Size of irrep 4 of <iA|bC> integrals:      0.000 (MW) /      0.004 (MB)
	Size of irrep 5 of <iA|bC> integrals:      0.002 (MW) /      0.013 (MB)
	Size of irrep 6 of <iA|bC> integrals:      0.001 (MW) /      0.007 (MB)
	Size of irrep 7 of <iA|bC> integrals:      0.001 (MW) /      0.007 (MB)
	Total:                                     0.008 (MW) /      0.061 (MB)

	Size of irrep 0 of tIjAb amplitudes:       0.001 (MW) /      0.009 (MB)
	Size of irrep 1 of tIjAb amplitudes:       0.000 (MW) /      0.001 (MB)
	Size of irrep 2 of tIjAb amplitudes:       0.000 (MW) /      0.004 (MB)
	Size of irrep 3 of tIjAb amplitudes:       0.000 (MW) /      0.004 (MB)
	Size of irrep 4 of tIjAb amplitudes:       0.000 (MW) /      0.001 (MB)
	Size of irrep 5 of tIjAb amplitudes:       0.001 (MW) /      0.009 (MB)
	Size of irrep 6 of tIjAb amplitudes:       0.000 (MW) /      0.004 (MB)
	Size of irrep 7 of tIjAb amplitudes:       0.000 (MW) /      0.004 (MB)
	Total:                                     0.004 (MW) /      0.035 (MB)


	Sorting File: A <IJ|KL> nbuckets = 1
	Sorting File: B <AB|CD> nbuckets = 1
	Sorting File: C <IA|JB> nbuckets = 1
	Sorting File: D <IJ|AB> nbuckets = 1
	Sorting File: E <AI|JK> nbuckets = 1
	Sorting File: F <IA|BC> nbuckets = 1
	Sorting File: F <AI|BC> nbuckets = 1
	Sorting File: A <ij|kl> nbuckets = 1
	Sorting File: B <ab|cd> nbuckets = 1
	Sorting File: C <ia|jb> nbuckets = 1
	Sorting File: D <ij|ab> nbuckets = 1
	Sorting File: E <ai|jk> nbuckets = 1
	Sorting File: F <ia|bc> nbuckets = 1
	Sorting File: F <ai|bc> nbuckets = 1
	Sorting File: A <Ij|Kl> nbuckets = 1
	Sorting File: B <Ab|Cd> nbuckets = 1
	Sorting File: C <Ia|Jb> nbuckets = 1
	Sorting File: C <Ai|Bj> nbuckets = 1
	Sorting File: D <Ij|Ab> nbuckets = 1
	Sorting File: E <Ai|Jk> nbuckets = 1
	Sorting File: E <Ij|Ka> nbuckets = 1
	Sorting File: F <Ia|Bc> nbuckets = 1
	Sorting File: F <aI|bC> nbuckets = 1
	Sorting File: F <Ab|Ci> nbuckets = 1
	Sorting File: F <Ai|Bc> nbuckets = 1
	One-electron energy          =   -538.67086734868224
	Two-electron (AA) energy     =     40.45360240216849
	Two-electron (BB) energy     =     40.45360240216849
	Two-electron (AB) energy     =    106.74183069604172
	Two-electron energy          =    187.64903550037872
	Frozen-core energy (transqt) =      0.00000000000000
	Reference energy             =   -245.18639013030358

*** tstop() called on cx1-12-3-4.cx1.hpc.ic.ac.uk at Mon Dec  2 13:15:06 2013
Module time:
	user time   =       0.04 seconds =       0.00 minutes
	system time =       0.09 seconds =       0.00 minutes
	total time  =         40 seconds =       0.67 minutes
Total time:
	user time   =       0.38 seconds =       0.01 minutes
	system time =       0.13 seconds =       0.00 minutes
	total time  =         69 seconds =       1.15 minutes

*** tstart() called on cx1-12-3-4.cx1.hpc.ic.ac.uk
*** at Mon Dec  2 13:15:06 2013

			**************************
			*                        *
			*        CCENERGY        *
			*                        *
			**************************

	Nuclear Rep. energy (chkpt)   =  105.835441717999998
	SCF energy          (chkpt)   = -245.186390130303522
	Reference energy    (file100) = -245.186390130303579

	Input parameters:
	-----------------
	Wave function   =   CCSD_T
	Reference wfn   =     UHF
	Memory (Mbytes) =     2000.0
	Maxiter         =     50
	R_Convergence   =     1.0e-07
	E_Convergence   =     1.0e-06
	Restart         =     No
	DIIS            =     Yes
	AO Basis        =     NONE
	ABCD            =     NEW
	Cache Level     =     2
	Cache Type      =     LRU
	Print Level     =     1
	Num. of threads =     1
	# Amps to Print =     10
	Print MP2 Amps? =     No
	Analyze T2 Amps =     No
	Print Pair Ener =     No
	Local CC        =     No
	SCS-MP2         =     False
	SCSN-MP2        =     False
	SCS-CCSD        =     False

	            Solving CC Amplitude Equations
	            ------------------------------
  Iter             Energy              RMS        T1Diag      D1Diag    New D1Diag    D2Diag
  ----     ---------------------    ---------   ----------  ----------  ----------   --------
     0        -0.365587174620794    0.000e+00    0.000000    0.000000    0.000000    0.000000
     1        -0.376815113079617    8.556e-02    0.004890    0.000000    0.000000    0.000000
     2        -0.392346499662912    4.364e-02    0.004955    0.000000    0.000000    0.000000
     3        -0.391562818508870    7.683e-03    0.005186    0.000000    0.000000    0.000000
     4        -0.391713371450335    2.386e-03    0.005013    0.000000    0.000000    0.000000
     5        -0.391774286463540    7.157e-04    0.005011    0.000000    0.000000    0.000000
     6        -0.391739550199130    4.807e-04    0.005012    0.000000    0.000000    0.000000
     7        -0.391761497659340    2.255e-04    0.005014    0.000000    0.000000    0.000000
     8        -0.391758093694185    4.111e-05    0.005012    0.000000    0.000000    0.000000
     9        -0.391758496542481    8.910e-06    0.005012    0.000000    0.000000    0.000000
    10        -0.391758276979162    2.259e-06    0.005012    0.000000    0.000000    0.000000
    11        -0.391758225200778    3.194e-07    0.005012    0.000000    0.000000    0.000000
    12        -0.391758221930414    5.599e-08    0.005012    0.000000    0.000000    0.000000

	Iterations converged.


	Largest TIA Amplitudes:
	          3   5        -0.0082210896
	          4   7        -0.0082210896
	          7  10        -0.0061049428
	          2   1        -0.0049420482
	          8  14        -0.0036284982
	          9  16        -0.0036284982
	          7  11        -0.0032885155
	          6  11         0.0022860096
	          1   1         0.0020598618
	          8  15        -0.0012812406

	Largest Tia Amplitudes:
	          3   5        -0.0082210896
	          4   7        -0.0082210896
	          7  10        -0.0061049428
	          2   1        -0.0049420482
	          8  14        -0.0036284982
	          9  16        -0.0036284982
	          7  11        -0.0032885155
	          6  11         0.0022860096
	          1   1         0.0020598618
	          8  15        -0.0012812406

	Largest TIJAB Amplitudes:
	  4   3   7   5        -0.0207098402
	  9   8   4   2         0.0131184499
	  8   3  14   5        -0.0103080494
	  9   4  16   7        -0.0103080494
	  7   4  10   7         0.0095416570
	  7   3  10   5         0.0095416570
	  3   2   5   1        -0.0089536268
	  4   2   7   1        -0.0089536268
	  4   3  12   9         0.0086967182
	  4   3  17  15         0.0085088224

	Largest Tijab Amplitudes:
	  4   3   7   5        -0.0207098402
	  9   8   4   2         0.0131184499
	  8   3  14   5        -0.0103080494
	  9   4  16   7        -0.0103080494
	  7   4  10   7         0.0095416570
	  7   3  10   5         0.0095416570
	  3   2   5   1        -0.0089536268
	  4   2   7   1        -0.0089536268
	  4   3  12   9         0.0086967182
	  4   3  17  15         0.0085088224

	Largest TIjAb Amplitudes:
	  7   7   0   0        -0.3616895698
	  7   7   0   1         0.0576662015
	  7   7   1   0         0.0576662015
	  3   3   5   5        -0.0329419234
	  4   4   7   7        -0.0329419234
	  7   7  14  14        -0.0326806309
	  7   7  16  16        -0.0326806309
	  3   4   5   7        -0.0251824203
	  4   3   7   5        -0.0251824203
	  3   3  16  16        -0.0199910477

	SCF energy       (chkpt)              = -245.186390130303522
	Reference energy (file100)            = -245.186390130303579

	Opposite-spin MP2 correlation energy  =   -0.265375304138281
	Same-spin MP2 correlation energy      =   -0.100211870482513
	MP2 correlation energy                =   -0.365587174620794
      * MP2 total energy                      = -245.551977304924378

	Opposite-spin CCSD correlation energy =   -0.299301524737264
	Same-spin CCSD correlation energy     =   -0.092456697191299
	CCSD correlation energy               =   -0.391758221930414
      * CCSD total energy                     = -245.578148352233995


*** tstop() called on cx1-12-3-4.cx1.hpc.ic.ac.uk at Mon Dec  2 13:17:26 2013
Module time:
	user time   =       0.41 seconds =       0.01 minutes
	system time =       0.42 seconds =       0.01 minutes
	total time  =        140 seconds =       2.33 minutes
Total time:
	user time   =       0.80 seconds =       0.01 minutes
	system time =       0.56 seconds =       0.01 minutes
	total time  =        209 seconds =       3.48 minutes

*** tstart() called on cx1-12-3-4.cx1.hpc.ic.ac.uk
*** at Mon Dec  2 13:17:26 2013

			**************************
			*                        *
			*        CCTRIPLES       *
			*                        *
			**************************


	Wave function   =    CCSD_T
	Reference wfn   =      UHF

	Nuclear Rep. energy (chkpt)   =  105.835441717999998
	SCF energy          (chkpt)   = -245.186390130303522
	Reference energy    (file100) = -245.186390130303579
	CCSD energy         (file100) =   -0.391758221930414
	Total CCSD energy   (file100) = -245.578148352233995

	Number of ijk index combinations:
	Spin Case AAA: 120
	Spin Case BBB: 120
	Spin Case AAB: 450
	Spin Case ABB: 450
	AAA (T) energy                =   -0.000104056155604
	BBB (T) energy                =   -0.000104056155604
	AAB (T) energy                =   -0.003416708308069
	ABB (T) energy                =   -0.003416708308069
	(T) energy                    =   -0.007041528927346
      * CCSD(T) total energy          = -245.585189881161341


*** tstop() called on cx1-12-3-4.cx1.hpc.ic.ac.uk at Mon Dec  2 13:17:32 2013
Module time:
	user time   =       0.30 seconds =       0.00 minutes
	system time =       0.14 seconds =       0.00 minutes
	total time  =          6 seconds =       0.10 minutes
Total time:
	user time   =       1.10 seconds =       0.02 minutes
	system time =       0.70 seconds =       0.01 minutes
	total time  =        215 seconds =       3.58 minutes
Setting geometry variable R to 0.750000

*** tstart() called on cx1-12-3-4.cx1.hpc.ic.ac.uk
*** at Mon Dec  2 13:17:32 2013

	There are an even number of electrons - assuming singlet.
	Specify the multiplicity with the MULTP option in the
	input if this is incorrect


         ---------------------------------------------------------
                                   SCF
            by Justin Turney, Rob Parrish, and Andy Simmonett
                              UHF Reference
                        1 Threads,   2000 MiB Core
         ---------------------------------------------------------

  ==> Geometry <==

    Molecular point group: d2h
    Full point group: D_inf_h

    Geometry (in Angstrom), charge = 0, multiplicity = 1:

       Center              X                  Y                   Z       
    ------------   -----------------  -----------------  -----------------
          NE          0.000000000000     0.000000000000    -0.375000000000
          NE          0.000000000000     0.000000000000     0.375000000000

  Running in d2h symmetry.


	Rotational constants (cm^-1):
	A = **********    B =    2.99805   C =    2.99805

	Rotational constants (MHz):
	A = **********    B = 89879.12997   C = 89879.12997
  Nuclear repulsion =   70.556961145333375

  Charge       = 0
  Multiplicity = 1
  Electrons    = 20
  Nalpha       = 10
  Nbeta        = 10

  ==> Algorithm <==

  SCF Algorithm Type is PK.
  DIIS enabled.
  MOM disabled.
  Fractional occupation disabled.
  Guess Type is CORE.
  Energy threshold   = 1.00e-08
  Density threshold  = 1.00e-08
  Integral threshold = 0.00e+00

  ==> Primary Basis <==

  Basis Set: CC-PVDZ
    Number of shells: 12
    Number of basis function: 28
    Number of Cartesian functions: 30
    Spherical Harmonics?: true
    Max angular momentum: 2

  ==> Pre-Iterations <==

   -------------------------------------------------------
    Irrep   Nso     Nmo     Nalpha   Nbeta   Ndocc  Nsocc
   -------------------------------------------------------
     Ag         7       7       0       0       0       0
     B1g        1       1       0       0       0       0
     B2g        3       3       0       0       0       0
     B3g        3       3       0       0       0       0
     Au         1       1       0       0       0       0
     B1u        7       7       0       0       0       0
     B2u        3       3       0       0       0       0
     B3u        3       3       0       0       0       0
   -------------------------------------------------------
    Total      28      28      10      10      10       0
   -------------------------------------------------------

  Starting with a DF guess...

 OEINTS: Wrapper to libmints.
   by Justin Turney

   Calculation information:
      Number of atoms:                   2
      Number of AO shells:              12
      Number of SO shells:               6
      Number of primitives:             44
      Number of atomic orbitals:        30
      Number of basis functions:        28

      Number of irreps:                  8
      Number of functions per irrep: [   7    1    3    3    1    7    3    3 ]

      Overlap, kinetic, potential, dipole, and quadrupole integrals
        stored in file 35.

  ==> Integral Setup <==

  ==> DFJK: Density-Fitted J/K Matrices <==

    J tasked:                  Yes
    K tasked:                  Yes
    wK tasked:                  No
    OpenMP threads:              1
    Integrals threads:           1
    Memory (MB):              1430
    Algorithm:                Core
    Integral Cache:           NONE
    Schwarz Cutoff:          1E-12
    Fitting Condition:       1E-12

   => Auxiliary Basis Set <=

  Basis Set: CC-PVDZ-JKFIT
    Number of shells: 48
    Number of basis function: 140
    Number of Cartesian functions: 162
    Spherical Harmonics?: true
    Max angular momentum: 3

  Minimum eigenvalue in the overlap matrix is 8.6793924538E-03.
  Using Symmetric Orthogonalization.
  SCF Guess: Core (One-Electron) Hamiltonian.

  ==> Iterations <==

                           Total Energy        Delta E     RMS |[F,P]|

   @DF-UHF iter   1:  -237.96856768430376   -2.37969e+02   5.58317e-01 
   @DF-UHF iter   2:  -246.39485807233626   -8.42629e+00   4.47831e-01 DIIS
   @DF-UHF iter   3:  -252.72275628762020   -6.32790e+00   2.38938e-02 DIIS
   @DF-UHF iter   4:  -252.74495531137273   -2.21990e-02   4.35388e-03 DIIS
   @DF-UHF iter   5:  -252.74561791269997   -6.62601e-04   1.35280e-03 DIIS
   @DF-UHF iter   6:  -252.74567426501949   -5.63523e-05   1.02815e-04 DIIS
   @DF-UHF iter   7:  -252.74567467361987   -4.08600e-07   1.18270e-05 DIIS
   @DF-UHF iter   8:  -252.74567468884413   -1.52243e-08   4.41545e-06 DIIS
   @DF-UHF iter   9:  -252.74567468993496   -1.09083e-09   6.50441e-07 DIIS
   @DF-UHF iter  10:  -252.74567468995264   -1.76783e-11   2.97843e-08 DIIS
   @DF-UHF iter  11:  -252.74567468995264    0.00000e+00   1.08574e-09 DIIS

  DF guess converged.

  ==> Integral Setup <==

 MINTS: Wrapper to libmints.
   by Justin Turney

   Calculation information:
      Number of atoms:                   2
      Number of AO shells:              12
      Number of SO shells:               6
      Number of primitives:             44
      Number of atomic orbitals:        30
      Number of basis functions:        28

      Number of irreps:                  8
      Integral cutoff                 0.00e+00
      Number of functions per irrep: [   7    1    3    3    1    7    3    3 ]

      Overlap, kinetic, potential, dipole, and quadrupole integrals
        stored in file 35.

      Computing two-electron integrals...done
      Computed 10724 non-zero two-electron integrals.
        Stored in file 33.

	Batch   1 pq = [       0,      82] index = [             0,3403]
  ==> DiskJK: Disk-Based J/K Matrices <==

    J tasked:                  Yes
    K tasked:                  Yes
    wK tasked:                  No
    Memory (MB):              1430
    Schwarz Cutoff:          1E-12

   @UHF iter  12:  -252.74565257742597    2.21125e-05   2.38014e-04 DIIS
   @UHF iter  13:  -252.74565441875541   -1.84133e-06   7.38033e-05 DIIS
   @UHF iter  14:  -252.74565457986705   -1.61112e-07   2.17297e-05 DIIS
   @UHF iter  15:  -252.74565461173768   -3.18706e-08   8.67379e-06 DIIS
   @UHF iter  16:  -252.74565461618937   -4.45169e-09   1.63252e-06 DIIS
   @UHF iter  17:  -252.74565461646449   -2.75122e-10   1.27458e-07 DIIS
   @UHF iter  18:  -252.74565461646517   -6.82121e-13   4.25796e-09 DIIS

  ==> Post-Iterations <==

   @Spin Contamination Metric:  -1.598721155E-14
   @S^2 Expected:                0.000000000E+00
   @S^2 Observed:               -1.598721155E-14
   @S   Expected:                0.000000000E+00
   @S   Observed:                0.000000000E+00

	Orbital Energies (a.u.)
	-----------------------

	Alpha Occupied:                                                       

	   1Ag   -33.073393     1B1u  -33.068814     2Ag    -3.395537  
	   2B1u   -1.753540     1B2u   -1.659625     1B3u   -1.659625  
	   3Ag    -1.427397     1B2g   -0.741985     1B3g   -0.741985  
	   3B1u    0.566736  

	Alpha Virtual:                                                        

	   4Ag     1.340709     2B2u    1.355169     2B3u    1.355169  
	   2B3g    1.680023     2B2g    1.680023     4B1u    1.798309  
	   5Ag     1.855197     5B1u    3.331735     3B2u    4.151195  
	   3B3u    4.151195     6Ag     4.310510     1B1g    4.310510  
	   1Au     5.373145     6B1u    5.373145     7Ag     6.152115  
	   3B3g    6.970960     3B2g    6.970960     7B1u    7.426718  

	Beta Occupied:                                                        

	   1Ag   -33.073393     1B1u  -33.068814     2Ag    -3.395537  
	   2B1u   -1.753540     1B2u   -1.659625     1B3u   -1.659625  
	   3Ag    -1.427397     1B2g   -0.741985     1B3g   -0.741985  
	   3B1u    0.566736  

	Beta Virtual:                                                         

	   4Ag     1.340709     2B2u    1.355169     2B3u    1.355169  
	   2B3g    1.680023     2B2g    1.680023     4B1u    1.798309  
	   5Ag     1.855197     5B1u    3.331735     3B2u    4.151195  
	   3B3u    4.151195     6Ag     4.310510     1B1g    4.310510  
	   1Au     5.373145     6B1u    5.373145     7Ag     6.152115  
	   3B3g    6.970960     3B2g    6.970960     7B1u    7.426718  

	Final Occupation by Irrep:
	         Ag   B1g   B2g   B3g    Au   B1u   B2u   B3u 
	DOCC [     3,    0,    1,    1,    0,    3,    1,    1 ]
	SOCC [     0,    0,    0,    0,    0,    0,    0,    0 ]

  Energy converged.

  @UHF Final Energy:  -252.74565461646517

   => Energetics <=

    Nuclear Repulsion Energy =             70.5569611453333749
    One-Electron Energy =                -492.6949001974567750
    Two-Electron Energy =                 169.3922844356581834
    DFT Exchange-Correlation Energy =       0.0000000000000000
    Empirical Dispersion Energy =           0.0000000000000000
    Total Energy =                       -252.7456546164652025



Properties will be evaluated at   0.000000,   0.000000,   0.000000 Bohr
  ==> Properties <==


Properties computed using the SCF density density matrix
  Nuclear Dipole Moment: (a.u.)
     X:     0.0000      Y:     0.0000      Z:     0.0000

  Electronic Dipole Moment: (a.u.)
     X:     0.0000      Y:     0.0000      Z:     0.0000

  Dipole Moment: (a.u.)
     X:     0.0000      Y:     0.0000      Z:     0.0000     Total:     0.0000

  Dipole Moment: (Debye)
     X:     0.0000      Y:     0.0000      Z:     0.0000     Total:     0.0000


  Saving occupied orbitals to File 180.

*** tstop() called on cx1-12-3-4.cx1.hpc.ic.ac.uk at Mon Dec  2 13:17:34 2013
Module time:
	user time   =       0.32 seconds =       0.01 minutes
	system time =       0.01 seconds =       0.00 minutes
	total time  =          2 seconds =       0.03 minutes
Total time:
	user time   =       1.44 seconds =       0.02 minutes
	system time =       0.71 seconds =       0.01 minutes
	total time  =        217 seconds =       3.62 minutes

*** tstart() called on cx1-12-3-4.cx1.hpc.ic.ac.uk
*** at Mon Dec  2 13:17:34 2013


	**************************************************
	* TRANSQT2: Program to transform integrals from  *
	*           the SO basis to the MO basis.        *
	*                                                *
	*            Daniel, David, & Justin             *
	**************************************************


	Input parameters:
	-----------------
	Wave function   =	CCSD_T
	Backtransform   =	No
	Print Level     =	1
	Print TEIs      =	No
	Reference wfn   =	UHF
	Derivative      =	None
	Delete TEI File =	Yes
	Memory (Mbytes) =	2000.0
	Cache Level     =	2
	Cache Type      =	LRU
	Chkpt Parameters:
	--------------------
	Number of irreps     = 8
	Number of SOs        = 28
	Number of MOs        = 28
	Number of active MOs = 28

	Label	# SOs	# FZDC	# DOCC	# SOCC	# VIRT	# FZVR
	-----	-----	------	------	------	------	------
	 Ag	   7	    0	    3	    0	    4	    0
	 B1g	   1	    0	    0	    0	    1	    0
	 B2g	   3	    0	    1	    0	    2	    0
	 B3g	   3	    0	    1	    0	    2	    0
	 Au	   1	    0	    0	    0	    1	    0
	 B1u	   7	    0	    3	    0	    4	    0
	 B2u	   3	    0	    1	    0	    2	    0
	 B3u	   3	    0	    1	    0	    2	    0

	Nuclear Rep. energy (chkpt) =     70.55696114533337
	SCF energy          (chkpt) =   -252.74565461646517

	Presorting SO-basis two-electron integrals.
	Sorting File: SO Ints (pq,rs) nbuckets = 1
	Frozen-core energy =    0.000000000000000
	Starting AA/AB first half-transformation.
	Sorting AA/AB half-transformed integrals.
	Starting AA second half-transformation.
	Starting AB second half-transformation.
	Starting BB first half-transformation.
	Sorting BB half-transformed integrals.
	Starting BB second half-transformation.
	Two-electron integral transformation complete.

*** tstop() called on cx1-12-3-4.cx1.hpc.ic.ac.uk at Mon Dec  2 13:17:36 2013
Module time:
	user time   =       0.03 seconds =       0.00 minutes
	system time =       0.02 seconds =       0.00 minutes
	total time  =          2 seconds =       0.03 minutes
Total time:
	user time   =       1.47 seconds =       0.02 minutes
	system time =       0.73 seconds =       0.01 minutes
	total time  =        219 seconds =       3.65 minutes

*** tstart() called on cx1-12-3-4.cx1.hpc.ic.ac.uk
*** at Mon Dec  2 13:17:36 2013


			**************************
			*                        *
			*         CCSORT         *
			*                        *
			**************************


	Input parameters:
	-----------------
	Wave function   =	CCSD_T
	Reference wfn   =	UHF
	Derivative      =	None
	Memory (Mbytes) =	2000.0
	AO Basis        =	NONE
	Make (ab|cd)    =	True
	Make unpacked (ab|cd) =	True
	Cache Level     =	2
	Cache Type      =	LRU
	Local CC        =     No


	Chkpt Parameters:
	--------------------
	Number of irreps     = 8
	Number of MOs        = 28
	Number of active MOs = 28

	Label	# MOs	# FZDC	# DOCC	# SOCC	# VIRT	# FZVR
	-----	-----	------	------	------	------	------
	 Ag	   7	    0	    3	    0	    4	    0
	 B1g	   1	    0	    0	    0	    1	    0
	 B2g	   3	    0	    1	    0	    2	    0
	 B3g	   3	    0	    1	    0	    2	    0
	 Au	   1	    0	    0	    0	    1	    0
	 B1u	   7	    0	    3	    0	    4	    0
	 B2u	   3	    0	    1	    0	    2	    0
	 B3u	   3	    0	    1	    0	    2	    0

	Nuclear Rep. energy (chkpt) =     70.55696114533337
	SCF energy          (chkpt) =   -252.74565461646517

	Size of irrep 0 of <AB|CD> integrals:      0.000 (MW) /      0.002 (MB)
	Size of irrep 1 of <AB|CD> integrals:      0.000 (MW) /      0.002 (MB)
	Size of irrep 2 of <AB|CD> integrals:      0.000 (MW) /      0.003 (MB)
	Size of irrep 3 of <AB|CD> integrals:      0.000 (MW) /      0.003 (MB)
	Size of irrep 4 of <AB|CD> integrals:      0.000 (MW) /      0.002 (MB)
	Size of irrep 5 of <AB|CD> integrals:      0.001 (MW) /      0.005 (MB)
	Size of irrep 6 of <AB|CD> integrals:      0.000 (MW) /      0.003 (MB)
	Size of irrep 7 of <AB|CD> integrals:      0.000 (MW) /      0.003 (MB)
	Total:                                     0.003 (MW) /      0.024 (MB)

	Size of irrep 0 of <ab|cd> integrals:      0.000 (MW) /      0.002 (MB)
	Size of irrep 1 of <ab|cd> integrals:      0.000 (MW) /      0.002 (MB)
	Size of irrep 2 of <ab|cd> integrals:      0.000 (MW) /      0.003 (MB)
	Size of irrep 3 of <ab|cd> integrals:      0.000 (MW) /      0.003 (MB)
	Size of irrep 4 of <ab|cd> integrals:      0.000 (MW) /      0.002 (MB)
	Size of irrep 5 of <ab|cd> integrals:      0.001 (MW) /      0.005 (MB)
	Size of irrep 6 of <ab|cd> integrals:      0.000 (MW) /      0.003 (MB)
	Size of irrep 7 of <ab|cd> integrals:      0.000 (MW) /      0.003 (MB)
	Total:                                     0.003 (MW) /      0.024 (MB)

	Size of irrep 0 of <Ab|Cd> integrals:      0.003 (MW) /      0.020 (MB)
	Size of irrep 1 of <Ab|Cd> integrals:      0.001 (MW) /      0.008 (MB)
	Size of irrep 2 of <Ab|Cd> integrals:      0.002 (MW) /      0.013 (MB)
	Size of irrep 3 of <Ab|Cd> integrals:      0.002 (MW) /      0.013 (MB)
	Size of irrep 4 of <Ab|Cd> integrals:      0.001 (MW) /      0.008 (MB)
	Size of irrep 5 of <Ab|Cd> integrals:      0.003 (MW) /      0.020 (MB)
	Size of irrep 6 of <Ab|Cd> integrals:      0.002 (MW) /      0.013 (MB)
	Size of irrep 7 of <Ab|Cd> integrals:      0.002 (MW) /      0.013 (MB)
	Total:                                     0.013 (MW) /      0.108 (MB)

	Size of irrep 0 of <IA|BC> integrals:      0.002 (MW) /      0.013 (MB)
	Size of irrep 1 of <IA|BC> integrals:      0.000 (MW) /      0.004 (MB)
	Size of irrep 2 of <IA|BC> integrals:      0.001 (MW) /      0.007 (MB)
	Size of irrep 3 of <IA|BC> integrals:      0.001 (MW) /      0.007 (MB)
	Size of irrep 4 of <IA|BC> integrals:      0.000 (MW) /      0.004 (MB)
	Size of irrep 5 of <IA|BC> integrals:      0.002 (MW) /      0.013 (MB)
	Size of irrep 6 of <IA|BC> integrals:      0.001 (MW) /      0.007 (MB)
	Size of irrep 7 of <IA|BC> integrals:      0.001 (MW) /      0.007 (MB)
	Total:                                     0.008 (MW) /      0.061 (MB)

	Size of irrep 0 of <ia|bc> integrals:      0.002 (MW) /      0.013 (MB)
	Size of irrep 1 of <ia|bc> integrals:      0.000 (MW) /      0.004 (MB)
	Size of irrep 2 of <ia|bc> integrals:      0.001 (MW) /      0.007 (MB)
	Size of irrep 3 of <ia|bc> integrals:      0.001 (MW) /      0.007 (MB)
	Size of irrep 4 of <ia|bc> integrals:      0.000 (MW) /      0.004 (MB)
	Size of irrep 5 of <ia|bc> integrals:      0.002 (MW) /      0.013 (MB)
	Size of irrep 6 of <ia|bc> integrals:      0.001 (MW) /      0.007 (MB)
	Size of irrep 7 of <ia|bc> integrals:      0.001 (MW) /      0.007 (MB)
	Total:                                     0.008 (MW) /      0.061 (MB)

	Size of irrep 0 of <Ia|Bc> integrals:      0.002 (MW) /      0.013 (MB)
	Size of irrep 1 of <Ia|Bc> integrals:      0.000 (MW) /      0.004 (MB)
	Size of irrep 2 of <Ia|Bc> integrals:      0.001 (MW) /      0.007 (MB)
	Size of irrep 3 of <Ia|Bc> integrals:      0.001 (MW) /      0.007 (MB)
	Size of irrep 4 of <Ia|Bc> integrals:      0.000 (MW) /      0.004 (MB)
	Size of irrep 5 of <Ia|Bc> integrals:      0.002 (MW) /      0.013 (MB)
	Size of irrep 6 of <Ia|Bc> integrals:      0.001 (MW) /      0.007 (MB)
	Size of irrep 7 of <Ia|Bc> integrals:      0.001 (MW) /      0.007 (MB)
	Total:                                     0.008 (MW) /      0.061 (MB)

	Size of irrep 0 of <iA|bC> integrals:      0.002 (MW) /      0.013 (MB)
	Size of irrep 1 of <iA|bC> integrals:      0.000 (MW) /      0.004 (MB)
	Size of irrep 2 of <iA|bC> integrals:      0.001 (MW) /      0.007 (MB)
	Size of irrep 3 of <iA|bC> integrals:      0.001 (MW) /      0.007 (MB)
	Size of irrep 4 of <iA|bC> integrals:      0.000 (MW) /      0.004 (MB)
	Size of irrep 5 of <iA|bC> integrals:      0.002 (MW) /      0.013 (MB)
	Size of irrep 6 of <iA|bC> integrals:      0.001 (MW) /      0.007 (MB)
	Size of irrep 7 of <iA|bC> integrals:      0.001 (MW) /      0.007 (MB)
	Total:                                     0.008 (MW) /      0.061 (MB)

	Size of irrep 0 of tIjAb amplitudes:       0.001 (MW) /      0.009 (MB)
	Size of irrep 1 of tIjAb amplitudes:       0.000 (MW) /      0.001 (MB)
	Size of irrep 2 of tIjAb amplitudes:       0.000 (MW) /      0.004 (MB)
	Size of irrep 3 of tIjAb amplitudes:       0.000 (MW) /      0.004 (MB)
	Size of irrep 4 of tIjAb amplitudes:       0.000 (MW) /      0.001 (MB)
	Size of irrep 5 of tIjAb amplitudes:       0.001 (MW) /      0.009 (MB)
	Size of irrep 6 of tIjAb amplitudes:       0.000 (MW) /      0.004 (MB)
	Size of irrep 7 of tIjAb amplitudes:       0.000 (MW) /      0.004 (MB)
	Total:                                     0.004 (MW) /      0.035 (MB)


	Sorting File: A <IJ|KL> nbuckets = 1
	Sorting File: B <AB|CD> nbuckets = 1
	Sorting File: C <IA|JB> nbuckets = 1
	Sorting File: D <IJ|AB> nbuckets = 1
	Sorting File: E <AI|JK> nbuckets = 1
	Sorting File: F <IA|BC> nbuckets = 1
	Sorting File: F <AI|BC> nbuckets = 1
	Sorting File: A <ij|kl> nbuckets = 1
	Sorting File: B <ab|cd> nbuckets = 1
	Sorting File: C <ia|jb> nbuckets = 1
	Sorting File: D <ij|ab> nbuckets = 1
	Sorting File: E <ai|jk> nbuckets = 1
	Sorting File: F <ia|bc> nbuckets = 1
	Sorting File: F <ai|bc> nbuckets = 1
	Sorting File: A <Ij|Kl> nbuckets = 1
	Sorting File: B <Ab|Cd> nbuckets = 1
	Sorting File: C <Ia|Jb> nbuckets = 1
	Sorting File: C <Ai|Bj> nbuckets = 1
	Sorting File: D <Ij|Ab> nbuckets = 1
	Sorting File: E <Ai|Jk> nbuckets = 1
	Sorting File: E <Ij|Ka> nbuckets = 1
	Sorting File: F <Ia|Bc> nbuckets = 1
	Sorting File: F <aI|bC> nbuckets = 1
	Sorting File: F <Ab|Ci> nbuckets = 1
	Sorting File: F <Ai|Bc> nbuckets = 1
	One-electron energy          =   -492.69490006645611
	Two-electron (AA) energy     =     36.12573519766480
	Two-electron (BB) energy     =     36.12573519766480
	Two-electron (AB) energy     =     97.14081390932806
	Two-electron energy          =    169.39228430465766
	Frozen-core energy (transqt) =      0.00000000000000
	Reference energy             =   -252.74565461646506

*** tstop() called on cx1-12-3-4.cx1.hpc.ic.ac.uk at Mon Dec  2 13:18:15 2013
Module time:
	user time   =       0.05 seconds =       0.00 minutes
	system time =       0.09 seconds =       0.00 minutes
	total time  =         39 seconds =       0.65 minutes
Total time:
	user time   =       1.52 seconds =       0.03 minutes
	system time =       0.82 seconds =       0.01 minutes
	total time  =        258 seconds =       4.30 minutes

*** tstart() called on cx1-12-3-4.cx1.hpc.ic.ac.uk
*** at Mon Dec  2 13:18:15 2013

			**************************
			*                        *
			*        CCENERGY        *
			*                        *
			**************************

	Nuclear Rep. energy (chkpt)   =   70.556961145333375
	SCF energy          (chkpt)   = -252.745654616465174
	Reference energy    (file100) = -252.745654616465060

	Input parameters:
	-----------------
	Wave function   =   CCSD_T
	Reference wfn   =     UHF
	Memory (Mbytes) =     2000.0
	Maxiter         =     50
	R_Convergence   =     1.0e-07
	E_Convergence   =     1.0e-06
	Restart         =     No
	DIIS            =     Yes
	AO Basis        =     NONE
	ABCD            =     NEW
	Cache Level     =     2
	Cache Type      =     LRU
	Print Level     =     1
	Num. of threads =     1
	# Amps to Print =     10
	Print MP2 Amps? =     No
	Analyze T2 Amps =     No
	Print Pair Ener =     No
	Local CC        =     No
	SCS-MP2         =     False
	SCSN-MP2        =     False
	SCS-CCSD        =     False

	            Solving CC Amplitude Equations
	            ------------------------------
  Iter             Energy              RMS        T1Diag      D1Diag    New D1Diag    D2Diag
  ----     ---------------------    ---------   ----------  ----------  ----------   --------
     0        -0.396702039649074    5.599e-08    0.000000    0.000000    0.000000    0.000000
     1        -0.392405927411891    4.745e-02    0.006918    0.000000    0.000000    0.000000
     2        -0.399848562809952    1.330e-02    0.007882    0.000000    0.000000    0.000000
     3        -0.400423350731989    4.751e-03    0.008727    0.000000    0.000000    0.000000
     4        -0.400333618363091    6.891e-04    0.008784    0.000000    0.000000    0.000000
     5        -0.400340588976831    2.031e-04    0.008812    0.000000    0.000000    0.000000
     6        -0.400340314409938    4.769e-05    0.008819    0.000000    0.000000    0.000000
     7        -0.400340452875496    1.598e-05    0.008823    0.000000    0.000000    0.000000
     8        -0.400340463177620    3.573e-06    0.008824    0.000000    0.000000    0.000000
     9        -0.400340426419056    6.797e-07    0.008824    0.000000    0.000000    0.000000
    10        -0.400340442492808    1.590e-07    0.008824    0.000000    0.000000    0.000000
    11        -0.400340439759808    3.544e-08    0.008824    0.000000    0.000000    0.000000

	Iterations converged.


	Largest TIA Amplitudes:
	          7  10        -0.0190518598
	          3   5        -0.0089896227
	          4   7        -0.0089896227
	          8  14        -0.0089426479
	          9  16        -0.0089426479
	          7  11        -0.0063621645
	          1   1        -0.0035229945
	          6  10        -0.0034016961
	          7  13        -0.0031740964
	          2   0         0.0030064489

	Largest Tia Amplitudes:
	          7  10        -0.0190518598
	          3   5        -0.0089896227
	          4   7        -0.0089896227
	          8  14        -0.0089426479
	          9  16        -0.0089426479
	          7  11        -0.0063621645
	          1   1        -0.0035229945
	          6  10        -0.0034016961
	          7  13        -0.0031740964
	          2   0         0.0030064489

	Largest TIJAB Amplitudes:
	  7   2  10   0         0.0191973817
	  7   4  10   7         0.0152180063
	  7   3  10   5         0.0152180063
	  4   3   7   5        -0.0135484631
	  7   2  10   1        -0.0127297302
	  9   7  16  10         0.0124849801
	  8   7  14  10         0.0124849801
	  8   3  14   5        -0.0113714043
	  9   4  16   7        -0.0113714043
	  3   2  17  10        -0.0112165813

	Largest Tijab Amplitudes:
	  7   2  10   0         0.0191973817
	  7   4  10   7         0.0152180063
	  7   3  10   5         0.0152180063
	  4   3   7   5        -0.0135484631
	  7   2  10   1        -0.0127297302
	  9   7  16  10         0.0124849801
	  8   7  14  10         0.0124849801
	  8   3  14   5        -0.0113714043
	  9   4  16   7        -0.0113714043
	  3   2  17  10        -0.0112165813

	Largest TIjAb Amplitudes:
	  7   7   0   0        -0.1145019182
	  7   7  10  10        -0.0378690343
	  7   7   0   1         0.0361368933
	  7   7   1   0         0.0361368933
	  2   2  10  10        -0.0281708149
	  4   7   7  10         0.0232823666
	  7   4  10   7         0.0232823666
	  3   7   5  10         0.0232823666
	  7   3  10   5         0.0232823666
	  3   3   5   5        -0.0229393497

	SCF energy       (chkpt)              = -252.745654616465174
	Reference energy (file100)            = -252.745654616465060

	Opposite-spin MP2 correlation energy  =   -0.279783600176125
	Same-spin MP2 correlation energy      =   -0.116918439472950
	MP2 correlation energy                =   -0.396702039649074
      * MP2 total energy                      = -253.142356656114146

	Opposite-spin CCSD correlation energy =   -0.292996672270269
	Same-spin CCSD correlation energy     =   -0.107343767232112
	CCSD correlation energy               =   -0.400340439759808
      * CCSD total energy                     = -253.145995056224876


*** tstop() called on cx1-12-3-4.cx1.hpc.ic.ac.uk at Mon Dec  2 13:21:07 2013
Module time:
	user time   =       0.37 seconds =       0.01 minutes
	system time =       0.40 seconds =       0.01 minutes
	total time  =        172 seconds =       2.87 minutes
Total time:
	user time   =       1.89 seconds =       0.03 minutes
	system time =       1.22 seconds =       0.02 minutes
	total time  =        430 seconds =       7.17 minutes

*** tstart() called on cx1-12-3-4.cx1.hpc.ic.ac.uk
*** at Mon Dec  2 13:21:07 2013

			**************************
			*                        *
			*        CCTRIPLES       *
			*                        *
			**************************


	Wave function   =    CCSD_T
	Reference wfn   =      UHF

	Nuclear Rep. energy (chkpt)   =   70.556961145333375
	SCF energy          (chkpt)   = -252.745654616465174
	Reference energy    (file100) = -252.745654616465060
	CCSD energy         (file100) =   -0.400340439759808
	Total CCSD energy   (file100) = -253.145995056224876

	Number of ijk index combinations:
	Spin Case AAA: 120
	Spin Case BBB: 120
	Spin Case AAB: 450
	Spin Case ABB: 450
	AAA (T) energy                =   -0.000143544583734
	BBB (T) energy                =   -0.000143544583734
	AAB (T) energy                =   -0.002495639521632
	ABB (T) energy                =   -0.002495639521632
	(T) energy                    =   -0.005278368210731
      * CCSD(T) total energy          = -253.151273424435601


*** tstop() called on cx1-12-3-4.cx1.hpc.ic.ac.uk at Mon Dec  2 13:21:12 2013
Module time:
	user time   =       0.31 seconds =       0.01 minutes
	system time =       0.13 seconds =       0.00 minutes
	total time  =          5 seconds =       0.08 minutes
Total time:
	user time   =       2.20 seconds =       0.04 minutes
	system time =       1.35 seconds =       0.02 minutes
	total time  =        435 seconds =       7.25 minutes
Setting geometry variable R to 1.000000

*** tstart() called on cx1-12-3-4.cx1.hpc.ic.ac.uk
*** at Mon Dec  2 13:21:12 2013

	There are an even number of electrons - assuming singlet.
	Specify the multiplicity with the MULTP option in the
	input if this is incorrect


         ---------------------------------------------------------
                                   SCF
            by Justin Turney, Rob Parrish, and Andy Simmonett
                              UHF Reference
                        1 Threads,   2000 MiB Core
         ---------------------------------------------------------

  ==> Geometry <==

    Molecular point group: d2h
    Full point group: D_inf_h

    Geometry (in Angstrom), charge = 0, multiplicity = 1:

       Center              X                  Y                   Z       
    ------------   -----------------  -----------------  -----------------
          NE          0.000000000000     0.000000000000    -0.500000000000
          NE          0.000000000000     0.000000000000     0.500000000000

  Running in d2h symmetry.


	Rotational constants (cm^-1):
	A = **********    B =    1.68640   C =    1.68640

	Rotational constants (MHz):
	A = **********    B = 50557.01061   C = 50557.01061
  Nuclear repulsion =   52.917720858999999

  Charge       = 0
  Multiplicity = 1
  Electrons    = 20
  Nalpha       = 10
  Nbeta        = 10

  ==> Algorithm <==

  SCF Algorithm Type is PK.
  DIIS enabled.
  MOM disabled.
  Fractional occupation disabled.
  Guess Type is CORE.
  Energy threshold   = 1.00e-08
  Density threshold  = 1.00e-08
  Integral threshold = 0.00e+00

  ==> Primary Basis <==

  Basis Set: CC-PVDZ
    Number of shells: 12
    Number of basis function: 28
    Number of Cartesian functions: 30
    Spherical Harmonics?: true
    Max angular momentum: 2

  ==> Pre-Iterations <==

   -------------------------------------------------------
    Irrep   Nso     Nmo     Nalpha   Nbeta   Ndocc  Nsocc
   -------------------------------------------------------
     Ag         7       7       0       0       0       0
     B1g        1       1       0       0       0       0
     B2g        3       3       0       0       0       0
     B3g        3       3       0       0       0       0
     Au         1       1       0       0       0       0
     B1u        7       7       0       0       0       0
     B2u        3       3       0       0       0       0
     B3u        3       3       0       0       0       0
   -------------------------------------------------------
    Total      28      28      10      10      10       0
   -------------------------------------------------------

  Starting with a DF guess...

 OEINTS: Wrapper to libmints.
   by Justin Turney

   Calculation information:
      Number of atoms:                   2
      Number of AO shells:              12
      Number of SO shells:               6
      Number of primitives:             44
      Number of atomic orbitals:        30
      Number of basis functions:        28

      Number of irreps:                  8
      Number of functions per irrep: [   7    1    3    3    1    7    3    3 ]

      Overlap, kinetic, potential, dipole, and quadrupole integrals
        stored in file 35.

  ==> Integral Setup <==

  ==> DFJK: Density-Fitted J/K Matrices <==

    J tasked:                  Yes
    K tasked:                  Yes
    wK tasked:                  No
    OpenMP threads:              1
    Integrals threads:           1
    Memory (MB):              1430
    Algorithm:                Core
    Integral Cache:           NONE
    Schwarz Cutoff:          1E-12
    Fitting Condition:       1E-12

   => Auxiliary Basis Set <=

  Basis Set: CC-PVDZ-JKFIT
    Number of shells: 48
    Number of basis function: 140
    Number of Cartesian functions: 162
    Spherical Harmonics?: true
    Max angular momentum: 3

  Minimum eigenvalue in the overlap matrix is 2.6237122298E-02.
  Using Symmetric Orthogonalization.
  SCF Guess: Core (One-Electron) Hamiltonian.

  ==> Iterations <==

                           Total Energy        Delta E     RMS |[F,P]|

   @DF-UHF iter   1:  -243.78009036444780   -2.43780e+02   4.49630e-01 
   @DF-UHF iter   2:  -251.59900497697191   -7.81891e+00   3.33042e-01 DIIS
   @DF-UHF iter   3:  -255.47674257859541   -3.87774e+00   2.58765e-02 DIIS
   @DF-UHF iter   4:  -255.50296219160225   -2.62196e-02   5.61131e-03 DIIS
   @DF-UHF iter   5:  -255.50432850327775   -1.36631e-03   6.62776e-04 DIIS
   @DF-UHF iter   6:  -255.50435895462812   -3.04514e-05   1.06249e-04 DIIS
   @DF-UHF iter   7:  -255.50435994238336   -9.87755e-07   8.87724e-06 DIIS
   @DF-UHF iter   8:  -255.50435994577657   -3.39321e-09   1.39134e-06 DIIS
   @DF-UHF iter   9:  -255.50435994583518   -5.86056e-11   6.09774e-08 DIIS
   @DF-UHF iter  10:  -255.50435994583523   -5.68434e-14   5.77936e-09 DIIS

  DF guess converged.

  ==> Integral Setup <==

 MINTS: Wrapper to libmints.
   by Justin Turney

   Calculation information:
      Number of atoms:                   2
      Number of AO shells:              12
      Number of SO shells:               6
      Number of primitives:             44
      Number of atomic orbitals:        30
      Number of basis functions:        28

      Number of irreps:                  8
      Integral cutoff                 0.00e+00
      Number of functions per irrep: [   7    1    3    3    1    7    3    3 ]

      Overlap, kinetic, potential, dipole, and quadrupole integrals
        stored in file 35.

      Computing two-electron integrals...done
      Computed 10703 non-zero two-electron integrals.
        Stored in file 33.

	Batch   1 pq = [       0,      82] index = [             0,3403]
  ==> DiskJK: Disk-Based J/K Matrices <==

    J tasked:                  Yes
    K tasked:                  Yes
    wK tasked:                  No
    Memory (MB):              1430
    Schwarz Cutoff:          1E-12

   @UHF iter  11:  -255.50516892963589   -8.08984e-04   1.73268e-04 DIIS
   @UHF iter  12:  -255.50516952707500   -5.97439e-07   3.62950e-05 DIIS
   @UHF iter  13:  -255.50516955915799   -3.20830e-08   1.02861e-05 DIIS
   @UHF iter  14:  -255.50516956296622   -3.80822e-09   2.12211e-06 DIIS
   @UHF iter  15:  -255.50516956319603   -2.29818e-10   3.42595e-07 DIIS
   @UHF iter  16:  -255.50516956320701   -1.09708e-11   2.02261e-08 DIIS
   @UHF iter  17:  -255.50516956320712   -1.13687e-13   1.27131e-09 DIIS

  ==> Post-Iterations <==

   @Spin Contamination Metric:   8.881784197E-15
   @S^2 Expected:                0.000000000E+00
   @S^2 Observed:                8.881784197E-15
   @S   Expected:                0.000000000E+00
   @S   Observed:                0.000000000E+00

	Orbital Energies (a.u.)
	-----------------------

	Alpha Occupied:                                                       

	   1B1u  -32.654434     1Ag   -32.654320     2Ag    -2.413199  
	   2B1u   -1.696021     3Ag    -1.130439     1B2u   -1.055924  
	   1B3u   -1.055924     1B3g   -0.667990     1B2g   -0.667990  
	   3B1u   -0.134468  

	Alpha Virtual:                                                        

	   4B1u    1.543524     2B3u    1.661004     2B2u    1.661004  
	   4Ag     1.821717     2B3g    1.835373     2B2g    1.835373  
	   5Ag     2.164360     5B1u    3.068614     3B3u    4.460308  
	   3B2u    4.460308     6Ag     4.999374     1B1g    4.999374  
	   7Ag     5.029223     1Au     5.308739     6B1u    5.308739  
	   3B3g    6.147658     3B2g    6.147658     7B1u    7.240926  

	Beta Occupied:                                                        

	   1B1u  -32.654434     1Ag   -32.654320     2Ag    -2.413199  
	   2B1u   -1.696021     3Ag    -1.130439     1B2u   -1.055924  
	   1B3u   -1.055924     1B3g   -0.667990     1B2g   -0.667990  
	   3B1u   -0.134468  

	Beta Virtual:                                                         

	   4B1u    1.543524     2B3u    1.661004     2B2u    1.661004  
	   4Ag     1.821717     2B3g    1.835373     2B2g    1.835373  
	   5Ag     2.164360     5B1u    3.068614     3B3u    4.460308  
	   3B2u    4.460308     6Ag     4.999374     1B1g    4.999374  
	   7Ag     5.029223     1Au     5.308739     6B1u    5.308739  
	   3B3g    6.147658     3B2g    6.147658     7B1u    7.240926  

	Final Occupation by Irrep:
	         Ag   B1g   B2g   B3g    Au   B1u   B2u   B3u 
	DOCC [     3,    0,    1,    1,    0,    3,    1,    1 ]
	SOCC [     0,    0,    0,    0,    0,    0,    0,    0 ]

  Energy converged.

  @UHF Final Energy:  -255.50516956320712

   => Energetics <=

    Nuclear Repulsion Energy =             52.9177208589999992
    One-Electron Energy =                -468.5843606759557360
    Two-Electron Energy =                 160.1614702537486323
    DFT Exchange-Correlation Energy =       0.0000000000000000
    Empirical Dispersion Energy =           0.0000000000000000
    Total Energy =                       -255.5051695632071187



Properties will be evaluated at   0.000000,   0.000000,   0.000000 Bohr
  ==> Properties <==


Properties computed using the SCF density density matrix
  Nuclear Dipole Moment: (a.u.)
     X:     0.0000      Y:     0.0000      Z:     0.0000

  Electronic Dipole Moment: (a.u.)
     X:     0.0000      Y:     0.0000      Z:     0.0000

  Dipole Moment: (a.u.)
     X:     0.0000      Y:     0.0000      Z:     0.0000     Total:     0.0000

  Dipole Moment: (Debye)
     X:     0.0000      Y:     0.0000      Z:     0.0000     Total:     0.0000


  Saving occupied orbitals to File 180.

*** tstop() called on cx1-12-3-4.cx1.hpc.ic.ac.uk at Mon Dec  2 13:21:16 2013
Module time:
	user time   =       0.32 seconds =       0.01 minutes
	system time =       0.02 seconds =       0.00 minutes
	total time  =          4 seconds =       0.07 minutes
Total time:
	user time   =       2.54 seconds =       0.04 minutes
	system time =       1.37 seconds =       0.02 minutes
	total time  =        439 seconds =       7.32 minutes

*** tstart() called on cx1-12-3-4.cx1.hpc.ic.ac.uk
*** at Mon Dec  2 13:21:16 2013


	**************************************************
	* TRANSQT2: Program to transform integrals from  *
	*           the SO basis to the MO basis.        *
	*                                                *
	*            Daniel, David, & Justin             *
	**************************************************


	Input parameters:
	-----------------
	Wave function   =	CCSD_T
	Backtransform   =	No
	Print Level     =	1
	Print TEIs      =	No
	Reference wfn   =	UHF
	Derivative      =	None
	Delete TEI File =	Yes
	Memory (Mbytes) =	2000.0
	Cache Level     =	2
	Cache Type      =	LRU
	Chkpt Parameters:
	--------------------
	Number of irreps     = 8
	Number of SOs        = 28
	Number of MOs        = 28
	Number of active MOs = 28

	Label	# SOs	# FZDC	# DOCC	# SOCC	# VIRT	# FZVR
	-----	-----	------	------	------	------	------
	 Ag	   7	    0	    3	    0	    4	    0
	 B1g	   1	    0	    0	    0	    1	    0
	 B2g	   3	    0	    1	    0	    2	    0
	 B3g	   3	    0	    1	    0	    2	    0
	 Au	   1	    0	    0	    0	    1	    0
	 B1u	   7	    0	    3	    0	    4	    0
	 B2u	   3	    0	    1	    0	    2	    0
	 B3u	   3	    0	    1	    0	    2	    0

	Nuclear Rep. energy (chkpt) =     52.91772085900000
	SCF energy          (chkpt) =   -255.50516956320712

	Presorting SO-basis two-electron integrals.
	Sorting File: SO Ints (pq,rs) nbuckets = 1
	Frozen-core energy =    0.000000000000000
	Starting AA/AB first half-transformation.
	Sorting AA/AB half-transformed integrals.
	Starting AA second half-transformation.
	Starting AB second half-transformation.
	Starting BB first half-transformation.
	Sorting BB half-transformed integrals.
	Starting BB second half-transformation.
	Two-electron integral transformation complete.

*** tstop() called on cx1-12-3-4.cx1.hpc.ic.ac.uk at Mon Dec  2 13:21:18 2013
Module time:
	user time   =       0.03 seconds =       0.00 minutes
	system time =       0.02 seconds =       0.00 minutes
	total time  =          2 seconds =       0.03 minutes
Total time:
	user time   =       2.57 seconds =       0.04 minutes
	system time =       1.39 seconds =       0.02 minutes
	total time  =        441 seconds =       7.35 minutes

*** tstart() called on cx1-12-3-4.cx1.hpc.ic.ac.uk
*** at Mon Dec  2 13:21:18 2013


			**************************
			*                        *
			*         CCSORT         *
			*                        *
			**************************


	Input parameters:
	-----------------
	Wave function   =	CCSD_T
	Reference wfn   =	UHF
	Derivative      =	None
	Memory (Mbytes) =	2000.0
	AO Basis        =	NONE
	Make (ab|cd)    =	True
	Make unpacked (ab|cd) =	True
	Cache Level     =	2
	Cache Type      =	LRU
	Local CC        =     No


	Chkpt Parameters:
	--------------------
	Number of irreps     = 8
	Number of MOs        = 28
	Number of active MOs = 28

	Label	# MOs	# FZDC	# DOCC	# SOCC	# VIRT	# FZVR
	-----	-----	------	------	------	------	------
	 Ag	   7	    0	    3	    0	    4	    0
	 B1g	   1	    0	    0	    0	    1	    0
	 B2g	   3	    0	    1	    0	    2	    0
	 B3g	   3	    0	    1	    0	    2	    0
	 Au	   1	    0	    0	    0	    1	    0
	 B1u	   7	    0	    3	    0	    4	    0
	 B2u	   3	    0	    1	    0	    2	    0
	 B3u	   3	    0	    1	    0	    2	    0

	Nuclear Rep. energy (chkpt) =     52.91772085900000
	SCF energy          (chkpt) =   -255.50516956320712

	Size of irrep 0 of <AB|CD> integrals:      0.000 (MW) /      0.002 (MB)
	Size of irrep 1 of <AB|CD> integrals:      0.000 (MW) /      0.002 (MB)
	Size of irrep 2 of <AB|CD> integrals:      0.000 (MW) /      0.003 (MB)
	Size of irrep 3 of <AB|CD> integrals:      0.000 (MW) /      0.003 (MB)
	Size of irrep 4 of <AB|CD> integrals:      0.000 (MW) /      0.002 (MB)
	Size of irrep 5 of <AB|CD> integrals:      0.001 (MW) /      0.005 (MB)
	Size of irrep 6 of <AB|CD> integrals:      0.000 (MW) /      0.003 (MB)
	Size of irrep 7 of <AB|CD> integrals:      0.000 (MW) /      0.003 (MB)
	Total:                                     0.003 (MW) /      0.024 (MB)

	Size of irrep 0 of <ab|cd> integrals:      0.000 (MW) /      0.002 (MB)
	Size of irrep 1 of <ab|cd> integrals:      0.000 (MW) /      0.002 (MB)
	Size of irrep 2 of <ab|cd> integrals:      0.000 (MW) /      0.003 (MB)
	Size of irrep 3 of <ab|cd> integrals:      0.000 (MW) /      0.003 (MB)
	Size of irrep 4 of <ab|cd> integrals:      0.000 (MW) /      0.002 (MB)
	Size of irrep 5 of <ab|cd> integrals:      0.001 (MW) /      0.005 (MB)
	Size of irrep 6 of <ab|cd> integrals:      0.000 (MW) /      0.003 (MB)
	Size of irrep 7 of <ab|cd> integrals:      0.000 (MW) /      0.003 (MB)
	Total:                                     0.003 (MW) /      0.024 (MB)

	Size of irrep 0 of <Ab|Cd> integrals:      0.003 (MW) /      0.020 (MB)
	Size of irrep 1 of <Ab|Cd> integrals:      0.001 (MW) /      0.008 (MB)
	Size of irrep 2 of <Ab|Cd> integrals:      0.002 (MW) /      0.013 (MB)
	Size of irrep 3 of <Ab|Cd> integrals:      0.002 (MW) /      0.013 (MB)
	Size of irrep 4 of <Ab|Cd> integrals:      0.001 (MW) /      0.008 (MB)
	Size of irrep 5 of <Ab|Cd> integrals:      0.003 (MW) /      0.020 (MB)
	Size of irrep 6 of <Ab|Cd> integrals:      0.002 (MW) /      0.013 (MB)
	Size of irrep 7 of <Ab|Cd> integrals:      0.002 (MW) /      0.013 (MB)
	Total:                                     0.013 (MW) /      0.108 (MB)

	Size of irrep 0 of <IA|BC> integrals:      0.002 (MW) /      0.013 (MB)
	Size of irrep 1 of <IA|BC> integrals:      0.000 (MW) /      0.004 (MB)
	Size of irrep 2 of <IA|BC> integrals:      0.001 (MW) /      0.007 (MB)
	Size of irrep 3 of <IA|BC> integrals:      0.001 (MW) /      0.007 (MB)
	Size of irrep 4 of <IA|BC> integrals:      0.000 (MW) /      0.004 (MB)
	Size of irrep 5 of <IA|BC> integrals:      0.002 (MW) /      0.013 (MB)
	Size of irrep 6 of <IA|BC> integrals:      0.001 (MW) /      0.007 (MB)
	Size of irrep 7 of <IA|BC> integrals:      0.001 (MW) /      0.007 (MB)
	Total:                                     0.008 (MW) /      0.061 (MB)

	Size of irrep 0 of <ia|bc> integrals:      0.002 (MW) /      0.013 (MB)
	Size of irrep 1 of <ia|bc> integrals:      0.000 (MW) /      0.004 (MB)
	Size of irrep 2 of <ia|bc> integrals:      0.001 (MW) /      0.007 (MB)
	Size of irrep 3 of <ia|bc> integrals:      0.001 (MW) /      0.007 (MB)
	Size of irrep 4 of <ia|bc> integrals:      0.000 (MW) /      0.004 (MB)
	Size of irrep 5 of <ia|bc> integrals:      0.002 (MW) /      0.013 (MB)
	Size of irrep 6 of <ia|bc> integrals:      0.001 (MW) /      0.007 (MB)
	Size of irrep 7 of <ia|bc> integrals:      0.001 (MW) /      0.007 (MB)
	Total:                                     0.008 (MW) /      0.061 (MB)

	Size of irrep 0 of <Ia|Bc> integrals:      0.002 (MW) /      0.013 (MB)
	Size of irrep 1 of <Ia|Bc> integrals:      0.000 (MW) /      0.004 (MB)
	Size of irrep 2 of <Ia|Bc> integrals:      0.001 (MW) /      0.007 (MB)
	Size of irrep 3 of <Ia|Bc> integrals:      0.001 (MW) /      0.007 (MB)
	Size of irrep 4 of <Ia|Bc> integrals:      0.000 (MW) /      0.004 (MB)
	Size of irrep 5 of <Ia|Bc> integrals:      0.002 (MW) /      0.013 (MB)
	Size of irrep 6 of <Ia|Bc> integrals:      0.001 (MW) /      0.007 (MB)
	Size of irrep 7 of <Ia|Bc> integrals:      0.001 (MW) /      0.007 (MB)
	Total:                                     0.008 (MW) /      0.061 (MB)

	Size of irrep 0 of <iA|bC> integrals:      0.002 (MW) /      0.013 (MB)
	Size of irrep 1 of <iA|bC> integrals:      0.000 (MW) /      0.004 (MB)
	Size of irrep 2 of <iA|bC> integrals:      0.001 (MW) /      0.007 (MB)
	Size of irrep 3 of <iA|bC> integrals:      0.001 (MW) /      0.007 (MB)
	Size of irrep 4 of <iA|bC> integrals:      0.000 (MW) /      0.004 (MB)
	Size of irrep 5 of <iA|bC> integrals:      0.002 (MW) /      0.013 (MB)
	Size of irrep 6 of <iA|bC> integrals:      0.001 (MW) /      0.007 (MB)
	Size of irrep 7 of <iA|bC> integrals:      0.001 (MW) /      0.007 (MB)
	Total:                                     0.008 (MW) /      0.061 (MB)

	Size of irrep 0 of tIjAb amplitudes:       0.001 (MW) /      0.009 (MB)
	Size of irrep 1 of tIjAb amplitudes:       0.000 (MW) /      0.001 (MB)
	Size of irrep 2 of tIjAb amplitudes:       0.000 (MW) /      0.004 (MB)
	Size of irrep 3 of tIjAb amplitudes:       0.000 (MW) /      0.004 (MB)
	Size of irrep 4 of tIjAb amplitudes:       0.000 (MW) /      0.001 (MB)
	Size of irrep 5 of tIjAb amplitudes:       0.001 (MW) /      0.009 (MB)
	Size of irrep 6 of tIjAb amplitudes:       0.000 (MW) /      0.004 (MB)
	Size of irrep 7 of tIjAb amplitudes:       0.000 (MW) /      0.004 (MB)
	Total:                                     0.004 (MW) /      0.035 (MB)


	Sorting File: A <IJ|KL> nbuckets = 1
	Sorting File: B <AB|CD> nbuckets = 1
	Sorting File: C <IA|JB> nbuckets = 1
	Sorting File: D <IJ|AB> nbuckets = 1
	Sorting File: E <AI|JK> nbuckets = 1
	Sorting File: F <IA|BC> nbuckets = 1
	Sorting File: F <AI|BC> nbuckets = 1
	Sorting File: A <ij|kl> nbuckets = 1
	Sorting File: B <ab|cd> nbuckets = 1
	Sorting File: C <ia|jb> nbuckets = 1
	Sorting File: D <ij|ab> nbuckets = 1
	Sorting File: E <ai|jk> nbuckets = 1
	Sorting File: F <ia|bc> nbuckets = 1
	Sorting File: F <ai|bc> nbuckets = 1
	Sorting File: A <Ij|Kl> nbuckets = 1
	Sorting File: B <Ab|Cd> nbuckets = 1
	Sorting File: C <Ia|Jb> nbuckets = 1
	Sorting File: C <Ai|Bj> nbuckets = 1
	Sorting File: D <Ij|Ab> nbuckets = 1
	Sorting File: E <Ai|Jk> nbuckets = 1
	Sorting File: E <Ij|Ka> nbuckets = 1
	Sorting File: F <Ia|Bc> nbuckets = 1
	Sorting File: F <aI|bC> nbuckets = 1
	Sorting File: F <Ab|Ci> nbuckets = 1
	Sorting File: F <Ai|Bc> nbuckets = 1
	One-electron energy          =   -468.58436065070464
	Two-electron (AA) energy     =     33.84524208827781
	Two-electron (BB) energy     =     33.84524208827781
	Two-electron (AB) energy     =     92.47098605194205
	Two-electron energy          =    160.16147022849765
	Frozen-core energy (transqt) =      0.00000000000000
	Reference energy             =   -255.50516956320698

*** tstop() called on cx1-12-3-4.cx1.hpc.ic.ac.uk at Mon Dec  2 13:21:47 2013
Module time:
	user time   =       0.05 seconds =       0.00 minutes
	system time =       0.07 seconds =       0.00 minutes
	total time  =         29 seconds =       0.48 minutes
Total time:
	user time   =       2.62 seconds =       0.04 minutes
	system time =       1.46 seconds =       0.02 minutes
	total time  =        470 seconds =       7.83 minutes

*** tstart() called on cx1-12-3-4.cx1.hpc.ic.ac.uk
*** at Mon Dec  2 13:21:47 2013

			**************************
			*                        *
			*        CCENERGY        *
			*                        *
			**************************

	Nuclear Rep. energy (chkpt)   =   52.917720858999999
	SCF energy          (chkpt)   = -255.505169563207119
	Reference energy    (file100) = -255.505169563206977

	Input parameters:
	-----------------
	Wave function   =   CCSD_T
	Reference wfn   =     UHF
	Memory (Mbytes) =     2000.0
	Maxiter         =     50
	R_Convergence   =     1.0e-07
	E_Convergence   =     1.0e-06
	Restart         =     No
	DIIS            =     Yes
	AO Basis        =     NONE
	ABCD            =     NEW
	Cache Level     =     2
	Cache Type      =     LRU
	Print Level     =     1
	Num. of threads =     1
	# Amps to Print =     10
	Print MP2 Amps? =     No
	Analyze T2 Amps =     No
	Print Pair Ener =     No
	Local CC        =     No
	SCS-MP2         =     False
	SCSN-MP2        =     False
	SCS-CCSD        =     False

	            Solving CC Amplitude Equations
	            ------------------------------
  Iter             Energy              RMS        T1Diag      D1Diag    New D1Diag    D2Diag
  ----     ---------------------    ---------   ----------  ----------  ----------   --------
     0        -0.388629683570133    3.544e-08    0.000000    0.000000    0.000000    0.000000
     1        -0.386992410126907    3.369e-02    0.005744    0.000000    0.000000    0.000000
     2        -0.390636449328761    6.741e-03    0.005234    0.000000    0.000000    0.000000
     3        -0.391278024580940    2.260e-03    0.005589    0.000000    0.000000    0.000000
     4        -0.391238495498788    2.666e-04    0.005623    0.000000    0.000000    0.000000
     5        -0.391235446895848    6.761e-05    0.005633    0.000000    0.000000    0.000000
     6        -0.391235423843154    1.375e-05    0.005636    0.000000    0.000000    0.000000
     7        -0.391235249970910    2.250e-06    0.005636    0.000000    0.000000    0.000000
     8        -0.391235242256465    2.458e-07    0.005636    0.000000    0.000000    0.000000
     9        -0.391235242217862    3.877e-08    0.005636    0.000000    0.000000    0.000000

	Iterations converged.


	Largest TIA Amplitudes:
	          7  10        -0.0146827679
	          8  14        -0.0051008189
	          9  16        -0.0051008189
	          2   0         0.0036520393
	          1   1        -0.0034361813
	          3   5        -0.0028196464
	          4   7        -0.0028196464
	          1   0         0.0018014616
	          1   3        -0.0010477316
	          2   3        -0.0009811334

	Largest Tia Amplitudes:
	          7  10        -0.0146827679
	          8  14        -0.0051008189
	          9  16        -0.0051008189
	          2   0         0.0036520393
[...]

	   4Ag     1.694556     2B3u    1.694558     2B2u    1.694558  
	   2B2g    1.694558     2B3g    1.694558     4B1u    1.694559  
	   5Ag     2.159425     5B1u    2.159425     6B1u    5.196711  
	   6Ag     5.196711     3B3g    5.196711     3B2g    5.196711  
	   3B3u    5.196711     3B2u    5.196711     7B1u    5.196711  
	   1Au     5.196711     7Ag     5.196711     1B1g    5.196711  

	Beta Occupied:                                                        

	   1B1u  -32.765635     1Ag   -32.765635     2Ag    -1.918798  
	   2B1u   -1.918798     3Ag    -0.832097     1B3u   -0.832097  
	   1B2u   -0.832097     1B2g   -0.832097     1B3g   -0.832097  
	   3B1u   -0.832097  

	Beta Virtual:                                                         

	   4Ag     1.694556     2B3u    1.694558     2B2u    1.694558  
	   2B2g    1.694558     2B3g    1.694558     4B1u    1.694559  
	   5Ag     2.159425     5B1u    2.159425     6B1u    5.196711  
	   6Ag     5.196711     3B3g    5.196711     3B2g    5.196711  
	   3B3u    5.196711     3B2u    5.196711     7B1u    5.196711  
	   1Au     5.196711     7Ag     5.196711     1B1g    5.196711  

	Final Occupation by Irrep:
	         Ag   B1g   B2g   B3g    Au   B1u   B2u   B3u 
	DOCC [     3,    0,    1,    1,    0,    3,    1,    1 ]
	SOCC [     0,    0,    0,    0,    0,    0,    0,    0 ]

  Energy converged.

  @UHF Final Energy:  -256.97755110348180

   => Energetics <=

    Nuclear Repulsion Energy =             10.5835441718000069
    One-Electron Energy =                -386.3992889410484395
    Two-Electron Energy =                 118.8381936657666529
    DFT Exchange-Correlation Energy =       0.0000000000000000
    Empirical Dispersion Energy =           0.0000000000000000
    Total Energy =                       -256.9775511034818010



Properties will be evaluated at   0.000000,   0.000000,   0.000000 Bohr
  ==> Properties <==


Properties computed using the SCF density density matrix
  Nuclear Dipole Moment: (a.u.)
     X:     0.0000      Y:     0.0000      Z:     0.0000

  Electronic Dipole Moment: (a.u.)
     X:     0.0000      Y:     0.0000      Z:     0.0000

  Dipole Moment: (a.u.)
     X:     0.0000      Y:     0.0000      Z:     0.0000     Total:     0.0000

  Dipole Moment: (Debye)
     X:     0.0000      Y:     0.0000      Z:     0.0000     Total:     0.0000


  Saving occupied orbitals to File 180.

*** tstop() called on cx1-12-3-4.cx1.hpc.ic.ac.uk at Mon Dec  2 13:54:25 2013
Module time:
	user time   =       0.30 seconds =       0.01 minutes
	system time =       0.02 seconds =       0.00 minutes
	total time  =          2 seconds =       0.03 minutes
Total time:
	user time   =      19.54 seconds =       0.33 minutes
	system time =      11.92 seconds =       0.20 minutes
	total time  =       2428 seconds =      40.47 minutes

*** tstart() called on cx1-12-3-4.cx1.hpc.ic.ac.uk
*** at Mon Dec  2 13:54:25 2013


	**************************************************
	* TRANSQT2: Program to transform integrals from  *
	*           the SO basis to the MO basis.        *
	*                                                *
	*            Daniel, David, & Justin             *
	**************************************************


	Input parameters:
	-----------------
	Wave function   =	CCSD_T
	Backtransform   =	No
	Print Level     =	1
	Print TEIs      =	No
	Reference wfn   =	UHF
	Derivative      =	None
	Delete TEI File =	Yes
	Memory (Mbytes) =	2000.0
	Cache Level     =	2
	Cache Type      =	LRU
	Chkpt Parameters:
	--------------------
	Number of irreps     = 8
	Number of SOs        = 28
	Number of MOs        = 28
	Number of active MOs = 28

	Label	# SOs	# FZDC	# DOCC	# SOCC	# VIRT	# FZVR
	-----	-----	------	------	------	------	------
	 Ag	   7	    0	    3	    0	    4	    0
	 B1g	   1	    0	    0	    0	    1	    0
	 B2g	   3	    0	    1	    0	    2	    0
	 B3g	   3	    0	    1	    0	    2	    0
	 Au	   1	    0	    0	    0	    1	    0
	 B1u	   7	    0	    3	    0	    4	    0
	 B2u	   3	    0	    1	    0	    2	    0
	 B3u	   3	    0	    1	    0	    2	    0

	Nuclear Rep. energy (chkpt) =     10.58354417180001
	SCF energy          (chkpt) =   -256.97755110348180

	Presorting SO-basis two-electron integrals.
	Sorting File: SO Ints (pq,rs) nbuckets = 1
	Frozen-core energy =    0.000000000000000
	Starting AA/AB first half-transformation.
	Sorting AA/AB half-transformed integrals.
	Starting AA second half-transformation.
	Starting AB second half-transformation.
	Starting BB first half-transformation.
	Sorting BB half-transformed integrals.
	Starting BB second half-transformation.
	Two-electron integral transformation complete.

*** tstop() called on cx1-12-3-4.cx1.hpc.ic.ac.uk at Mon Dec  2 13:54:26 2013
Module time:
	user time   =       0.03 seconds =       0.00 minutes
	system time =       0.02 seconds =       0.00 minutes
	total time  =          1 seconds =       0.02 minutes
Total time:
	user time   =      19.57 seconds =       0.33 minutes
	system time =      11.94 seconds =       0.20 minutes
	total time  =       2429 seconds =      40.48 minutes

*** tstart() called on cx1-12-3-4.cx1.hpc.ic.ac.uk
*** at Mon Dec  2 13:54:26 2013


			**************************
			*                        *
			*         CCSORT         *
			*                        *
			**************************


	Input parameters:
	-----------------
	Wave function   =	CCSD_T
	Reference wfn   =	UHF
	Derivative      =	None
	Memory (Mbytes) =	2000.0
	AO Basis        =	NONE
	Make (ab|cd)    =	True
	Make unpacked (ab|cd) =	True
	Cache Level     =	2
	Cache Type      =	LRU
	Local CC        =     No


	Chkpt Parameters:
	--------------------
	Number of irreps     = 8
	Number of MOs        = 28
	Number of active MOs = 28

	Label	# MOs	# FZDC	# DOCC	# SOCC	# VIRT	# FZVR
	-----	-----	------	------	------	------	------
	 Ag	   7	    0	    3	    0	    4	    0
	 B1g	   1	    0	    0	    0	    1	    0
	 B2g	   3	    0	    1	    0	    2	    0
	 B3g	   3	    0	    1	    0	    2	    0
	 Au	   1	    0	    0	    0	    1	    0
	 B1u	   7	    0	    3	    0	    4	    0
	 B2u	   3	    0	    1	    0	    2	    0
	 B3u	   3	    0	    1	    0	    2	    0

	Nuclear Rep. energy (chkpt) =     10.58354417180001
	SCF energy          (chkpt) =   -256.97755110348180

	Size of irrep 0 of <AB|CD> integrals:      0.000 (MW) /      0.002 (MB)
	Size of irrep 1 of <AB|CD> integrals:      0.000 (MW) /      0.002 (MB)
	Size of irrep 2 of <AB|CD> integrals:      0.000 (MW) /      0.003 (MB)
	Size of irrep 3 of <AB|CD> integrals:      0.000 (MW) /      0.003 (MB)
	Size of irrep 4 of <AB|CD> integrals:      0.000 (MW) /      0.002 (MB)
	Size of irrep 5 of <AB|CD> integrals:      0.001 (MW) /      0.005 (MB)
	Size of irrep 6 of <AB|CD> integrals:      0.000 (MW) /      0.003 (MB)
	Size of irrep 7 of <AB|CD> integrals:      0.000 (MW) /      0.003 (MB)
	Total:                                     0.003 (MW) /      0.024 (MB)

	Size of irrep 0 of <ab|cd> integrals:      0.000 (MW) /      0.002 (MB)
	Size of irrep 1 of <ab|cd> integrals:      0.000 (MW) /      0.002 (MB)
	Size of irrep 2 of <ab|cd> integrals:      0.000 (MW) /      0.003 (MB)
	Size of irrep 3 of <ab|cd> integrals:      0.000 (MW) /      0.003 (MB)
	Size of irrep 4 of <ab|cd> integrals:      0.000 (MW) /      0.002 (MB)
	Size of irrep 5 of <ab|cd> integrals:      0.001 (MW) /      0.005 (MB)
	Size of irrep 6 of <ab|cd> integrals:      0.000 (MW) /      0.003 (MB)
	Size of irrep 7 of <ab|cd> integrals:      0.000 (MW) /      0.003 (MB)
	Total:                                     0.003 (MW) /      0.024 (MB)

	Size of irrep 0 of <Ab|Cd> integrals:      0.003 (MW) /      0.020 (MB)
	Size of irrep 1 of <Ab|Cd> integrals:      0.001 (MW) /      0.008 (MB)
	Size of irrep 2 of <Ab|Cd> integrals:      0.002 (MW) /      0.013 (MB)
	Size of irrep 3 of <Ab|Cd> integrals:      0.002 (MW) /      0.013 (MB)
	Size of irrep 4 of <Ab|Cd> integrals:      0.001 (MW) /      0.008 (MB)
	Size of irrep 5 of <Ab|Cd> integrals:      0.003 (MW) /      0.020 (MB)
	Size of irrep 6 of <Ab|Cd> integrals:      0.002 (MW) /      0.013 (MB)
	Size of irrep 7 of <Ab|Cd> integrals:      0.002 (MW) /      0.013 (MB)
	Total:                                     0.013 (MW) /      0.108 (MB)

	Size of irrep 0 of <IA|BC> integrals:      0.002 (MW) /      0.013 (MB)
	Size of irrep 1 of <IA|BC> integrals:      0.000 (MW) /      0.004 (MB)
	Size of irrep 2 of <IA|BC> integrals:      0.001 (MW) /      0.007 (MB)
	Size of irrep 3 of <IA|BC> integrals:      0.001 (MW) /      0.007 (MB)
	Size of irrep 4 of <IA|BC> integrals:      0.000 (MW) /      0.004 (MB)
	Size of irrep 5 of <IA|BC> integrals:      0.002 (MW) /      0.013 (MB)
	Size of irrep 6 of <IA|BC> integrals:      0.001 (MW) /      0.007 (MB)
	Size of irrep 7 of <IA|BC> integrals:      0.001 (MW) /      0.007 (MB)
	Total:                                     0.008 (MW) /      0.061 (MB)

	Size of irrep 0 of <ia|bc> integrals:      0.002 (MW) /      0.013 (MB)
	Size of irrep 1 of <ia|bc> integrals:      0.000 (MW) /      0.004 (MB)
	Size of irrep 2 of <ia|bc> integrals:      0.001 (MW) /      0.007 (MB)
	Size of irrep 3 of <ia|bc> integrals:      0.001 (MW) /      0.007 (MB)
	Size of irrep 4 of <ia|bc> integrals:      0.000 (MW) /      0.004 (MB)
	Size of irrep 5 of <ia|bc> integrals:      0.002 (MW) /      0.013 (MB)
	Size of irrep 6 of <ia|bc> integrals:      0.001 (MW) /      0.007 (MB)
	Size of irrep 7 of <ia|bc> integrals:      0.001 (MW) /      0.007 (MB)
	Total:                                     0.008 (MW) /      0.061 (MB)

	Size of irrep 0 of <Ia|Bc> integrals:      0.002 (MW) /      0.013 (MB)
	Size of irrep 1 of <Ia|Bc> integrals:      0.000 (MW) /      0.004 (MB)
	Size of irrep 2 of <Ia|Bc> integrals:      0.001 (MW) /      0.007 (MB)
	Size of irrep 3 of <Ia|Bc> integrals:      0.001 (MW) /      0.007 (MB)
	Size of irrep 4 of <Ia|Bc> integrals:      0.000 (MW) /      0.004 (MB)
	Size of irrep 5 of <Ia|Bc> integrals:      0.002 (MW) /      0.013 (MB)
	Size of irrep 6 of <Ia|Bc> integrals:      0.001 (MW) /      0.007 (MB)
	Size of irrep 7 of <Ia|Bc> integrals:      0.001 (MW) /      0.007 (MB)
	Total:                                     0.008 (MW) /      0.061 (MB)

	Size of irrep 0 of <iA|bC> integrals:      0.002 (MW) /      0.013 (MB)
	Size of irrep 1 of <iA|bC> integrals:      0.000 (MW) /      0.004 (MB)
	Size of irrep 2 of <iA|bC> integrals:      0.001 (MW) /      0.007 (MB)
	Size of irrep 3 of <iA|bC> integrals:      0.001 (MW) /      0.007 (MB)
	Size of irrep 4 of <iA|bC> integrals:      0.000 (MW) /      0.004 (MB)
	Size of irrep 5 of <iA|bC> integrals:      0.002 (MW) /      0.013 (MB)
	Size of irrep 6 of <iA|bC> integrals:      0.001 (MW) /      0.007 (MB)
	Size of irrep 7 of <iA|bC> integrals:      0.001 (MW) /      0.007 (MB)
	Total:                                     0.008 (MW) /      0.061 (MB)

	Size of irrep 0 of tIjAb amplitudes:       0.001 (MW) /      0.009 (MB)
	Size of irrep 1 of tIjAb amplitudes:       0.000 (MW) /      0.001 (MB)
	Size of irrep 2 of tIjAb amplitudes:       0.000 (MW) /      0.004 (MB)
	Size of irrep 3 of tIjAb amplitudes:       0.000 (MW) /      0.004 (MB)
	Size of irrep 4 of tIjAb amplitudes:       0.000 (MW) /      0.001 (MB)
	Size of irrep 5 of tIjAb amplitudes:       0.001 (MW) /      0.009 (MB)
	Size of irrep 6 of tIjAb amplitudes:       0.000 (MW) /      0.004 (MB)
	Size of irrep 7 of tIjAb amplitudes:       0.000 (MW) /      0.004 (MB)
	Total:                                     0.004 (MW) /      0.035 (MB)


	Sorting File: A <IJ|KL> nbuckets = 1
	Sorting File: B <AB|CD> nbuckets = 1
	Sorting File: C <IA|JB> nbuckets = 1
	Sorting File: D <IJ|AB> nbuckets = 1
	Sorting File: E <AI|JK> nbuckets = 1
	Sorting File: F <IA|BC> nbuckets = 1
	Sorting File: F <AI|BC> nbuckets = 1
	Sorting File: A <ij|kl> nbuckets = 1
	Sorting File: B <ab|cd> nbuckets = 1
	Sorting File: C <ia|jb> nbuckets = 1
	Sorting File: D <ij|ab> nbuckets = 1
	Sorting File: E <ai|jk> nbuckets = 1
	Sorting File: F <ia|bc> nbuckets = 1
	Sorting File: F <ai|bc> nbuckets = 1
	Sorting File: A <Ij|Kl> nbuckets = 1
	Sorting File: B <Ab|Cd> nbuckets = 1
	Sorting File: C <Ia|Jb> nbuckets = 1
	Sorting File: C <Ai|Bj> nbuckets = 1
	Sorting File: D <Ij|Ab> nbuckets = 1
	Sorting File: E <Ai|Jk> nbuckets = 1
	Sorting File: E <Ij|Ka> nbuckets = 1
	Sorting File: F <Ia|Bc> nbuckets = 1
	Sorting File: F <aI|bC> nbuckets = 1
	Sorting File: F <Ab|Ci> nbuckets = 1
	Sorting File: F <Ai|Bc> nbuckets = 1
	One-electron energy          =   -386.39928891230517
	Two-electron (AA) energy     =     23.64677329999173
	Two-electron (BB) energy     =     23.64677329999173
	Two-electron (AB) energy     =     71.54464703703977
	Two-electron energy          =    118.83819363702322
	Frozen-core energy (transqt) =      0.00000000000000
	Reference energy             =   -256.97755110348191

*** tstop() called on cx1-12-3-4.cx1.hpc.ic.ac.uk at Mon Dec  2 13:54:35 2013
Module time:
	user time   =       0.04 seconds =       0.00 minutes
	system time =       0.08 seconds =       0.00 minutes
	total time  =          9 seconds =       0.15 minutes
Total time:
	user time   =      19.61 seconds =       0.33 minutes
	system time =      12.02 seconds =       0.20 minutes
	total time  =       2438 seconds =      40.63 minutes

*** tstart() called on cx1-12-3-4.cx1.hpc.ic.ac.uk
*** at Mon Dec  2 13:54:35 2013

			**************************
			*                        *
			*        CCENERGY        *
			*                        *
			**************************

	Nuclear Rep. energy (chkpt)   =   10.583544171800007
	SCF energy          (chkpt)   = -256.977551103481801
	Reference energy    (file100) = -256.977551103481915

	Input parameters:
	-----------------
	Wave function   =   CCSD_T
	Reference wfn   =     UHF
	Memory (Mbytes) =     2000.0
	Maxiter         =     50
	R_Convergence   =     1.0e-07
	E_Convergence   =     1.0e-06
	Restart         =     No
	DIIS            =     Yes
	AO Basis        =     NONE
	ABCD            =     NEW
	Cache Level     =     2
	Cache Type      =     LRU
	Print Level     =     1
	Num. of threads =     1
	# Amps to Print =     10
	Print MP2 Amps? =     No
	Analyze T2 Amps =     No
	Print Pair Ener =     No
	Local CC        =     No
	SCS-MP2         =     False
	SCSN-MP2        =     False
	SCS-CCSD        =     False

	            Solving CC Amplitude Equations
	            ------------------------------
  Iter             Energy              RMS        T1Diag      D1Diag    New D1Diag    D2Diag
  ----     ---------------------    ---------   ----------  ----------  ----------   --------
     0        -0.375135330821156    8.438e-08    0.000000    0.000000    0.000000    0.000000
     1        -0.378549507735883    2.403e-02    0.003251    0.000000    0.000000    0.000000
     2        -0.381265644242834    5.152e-03    0.002913    0.000000    0.000000    0.000000
     3        -0.381737527084038    1.404e-03    0.003003    0.000000    0.000000    0.000000
     4        -0.381723412632341    1.253e-04    0.003001    0.000000    0.000000    0.000000
     5        -0.381723707449867    7.359e-06    0.003001    0.000000    0.000000    0.000000
     6        -0.381723714622564    1.260e-06    0.003001    0.000000    0.000000    0.000000
     7        -0.381723710871150    8.438e-08    0.003001    0.000000    0.000000    0.000000

	Iterations converged.


	Largest TIA Amplitudes:
	          2   0        -0.0036095489
	          7  10        -0.0036095268
	          8  14        -0.0036094846
	          9  16        -0.0036094846
	          3   5        -0.0036094839
	          4   7        -0.0036094839
	          1   1        -0.0024345484
	          6  11        -0.0024345484
	          0   1         0.0001157529
	          5  11         0.0001157529

	Largest Tia Amplitudes:
	          2   0        -0.0036095489
	          7  10        -0.0036095268
	          8  14        -0.0036094846
	          9  16        -0.0036094846
	          3   5        -0.0036094839
	          4   7        -0.0036094839
	          1   1        -0.0024345484
	          6  11        -0.0024345484
	          0   1         0.0001157529
	          5  11         0.0001157529

	Largest TIJAB Amplitudes:
	  7   4  14   0         0.0115941068
	  7   3  16   0         0.0115941068
	  8   2  10   7         0.0115940845
	  9   2  10   5         0.0115940845
	  8   3  14   5        -0.0115921605
	  9   4  16   7        -0.0115921605
	  3   2   5   0        -0.0115915246
	  4   2   7   0        -0.0115915246
	  9   7   5   0        -0.0115915222
	  8   7   7   0        -0.0115915222

	Largest Tijab Amplitudes:
	  7   4  14   0         0.0115941068
	  7   3  16   0         0.0115941068
	  8   2  10   7         0.0115940845
	  9   2  10   5         0.0115940845
	  8   3  14   5        -0.0115921605
	  9   4  16   7        -0.0115921605
	  3   2   5   0        -0.0115915246
	  4   2   7   0        -0.0115915246
	  9   7   5   0        -0.0115915222
	  8   7   7   0        -0.0115915222

	Largest TIjAb Amplitudes:
	  2   2   0   0        -0.0210492740
	  2   7   0  10        -0.0210492598
	  7   2  10   0        -0.0210492598
	  7   7  10  10        -0.0210492456
	  8   8  14  14        -0.0210476546
	  9   9  16  16        -0.0210476546
	  3   9   5  16        -0.0210476543
	  4   8   7  14        -0.0210476543
	  8   4  14   7        -0.0210476543
	  9   3  16   5        -0.0210476543

	SCF energy       (chkpt)              = -256.977551103481801
	Reference energy (file100)            = -256.977551103481915

	Opposite-spin MP2 correlation energy  =   -0.272018314952393
	Same-spin MP2 correlation energy      =   -0.103117015868763
	MP2 correlation energy                =   -0.375135330821156
      * MP2 total energy                      = -257.352686434303052

	Opposite-spin CCSD correlation energy =   -0.286935902400383
	Same-spin CCSD correlation energy     =   -0.094787808468741
	CCSD correlation energy               =   -0.381723710871150
      * CCSD total energy                     = -257.359274814353057


*** tstop() called on cx1-12-3-4.cx1.hpc.ic.ac.uk at Mon Dec  2 13:55:02 2013
Module time:
	user time   =       0.23 seconds =       0.00 minutes
	system time =       0.26 seconds =       0.00 minutes
	total time  =         27 seconds =       0.45 minutes
Total time:
	user time   =      19.85 seconds =       0.33 minutes
	system time =      12.28 seconds =       0.20 minutes
	total time  =       2465 seconds =      41.08 minutes

*** tstart() called on cx1-12-3-4.cx1.hpc.ic.ac.uk
*** at Mon Dec  2 13:55:02 2013

			**************************
			*                        *
			*        CCTRIPLES       *
			*                        *
			**************************


	Wave function   =    CCSD_T
	Reference wfn   =      UHF

	Nuclear Rep. energy (chkpt)   =   10.583544171800007
	SCF energy          (chkpt)   = -256.977551103481801
	Reference energy    (file100) = -256.977551103481915
	CCSD energy         (file100) =   -0.381723710871150
	Total CCSD energy   (file100) = -257.359274814353057

	Number of ijk index combinations:
	Spin Case AAA: 120
	Spin Case BBB: 120
	Spin Case AAB: 450
	Spin Case ABB: 450
	AAA (T) energy                =   -0.000050508610722
	BBB (T) energy                =   -0.000050508610722
	AAB (T) energy                =   -0.001005437923407
	ABB (T) energy                =   -0.001005437923407
	(T) energy                    =   -0.002111893068257
      * CCSD(T) total energy          = -257.361386707421332


*** tstop() called on cx1-12-3-4.cx1.hpc.ic.ac.uk at Mon Dec  2 13:55:07 2013
Module time:
	user time   =       0.33 seconds =       0.01 minutes
	system time =       0.10 seconds =       0.00 minutes
	total time  =          5 seconds =       0.08 minutes
Total time:
	user time   =      20.18 seconds =       0.34 minutes
	system time =      12.38 seconds =       0.21 minutes
	total time  =       2470 seconds =      41.17 minutes

*** PSI4 exiting successfully. Buy a developer a beer!
